   1   1   0   0
  0.2607167E+02  0.3227754E-09  0.3107181E-09  0.3141588E-09  0.5000000E-15
  1.000000000000000E-004
  CAR 
 unknown system                          
     73.16279746     -8.15855596  301      3.74133018      1.00000000
     -8.159  0.0000E+00  0.0000E+00
     -7.887  0.0000E+00  0.0000E+00
     -7.616  0.0000E+00  0.0000E+00
     -7.345  0.0000E+00  0.0000E+00
     -7.074  0.0000E+00  0.0000E+00
     -6.803  0.0000E+00  0.0000E+00
     -6.532  0.0000E+00  0.0000E+00
     -6.261 -0.1095E-35 -0.2969E-36
     -5.990 -0.5750E-26 -0.1559E-26
     -5.719 -0.7420E-18 -0.2011E-18
     -5.448 -0.2223E-11 -0.6025E-12
     -5.177 -0.1568E-06 -0.4251E-07
     -4.906 -0.2192E-03 -0.5947E-04
     -4.635 -0.3764E-04 -0.6967E-04
     -4.364  0.5128E-01  0.1383E-01
     -4.092  0.2678E-02  0.1456E-01
     -3.821  0.8707E-01  0.3816E-01
     -3.550  0.3347E+00  0.1289E+00
     -3.279  0.1700E+00  0.1750E+00
     -3.008  0.3100E+00  0.2590E+00
     -2.737  0.2048E+00  0.3145E+00
     -2.466  0.7716E-01  0.3354E+00
     -2.195  0.1079E+00  0.3647E+00
     -1.924  0.2989E+00  0.4457E+00
     -1.653  0.5927E+00  0.6064E+00
     -1.382  0.4200E+00  0.7202E+00
     -1.111  0.4036E+00  0.8296E+00
     -0.840  0.6970E+00  0.1019E+01
     -0.569  0.2135E+00  0.1076E+01
     -0.297  0.2661E+00  0.1149E+01
     -0.026  0.1698E+00  0.1195E+01
      0.245  0.3019E+00  0.1276E+01
      0.516  0.3916E+00  0.1383E+01
      0.787  0.3094E+00  0.1466E+01
      1.058  0.4821E+00  0.1597E+01
      1.329  0.4966E+00  0.1732E+01
      1.600  0.3755E+00  0.1833E+01
      1.871  0.6399E+00  0.2007E+01
      2.142  0.3184E+00  0.2093E+01
      2.413  0.6196E+00  0.2261E+01
      2.684  0.6402E+00  0.2435E+01
      2.955  0.7581E+00  0.2640E+01
      3.226  0.6346E+00  0.2812E+01
      3.498  0.4731E+00  0.2941E+01
      3.769  0.2459E+00  0.3007E+01
      4.040  0.3359E+00  0.3098E+01
      4.311  0.4277E+00  0.3214E+01
      4.582  0.4782E+00  0.3344E+01
      4.853  0.2669E+00  0.3416E+01
      5.124  0.6442E+00  0.3591E+01
      5.395  0.1032E+01  0.3870E+01
      5.666  0.1009E+01  0.4144E+01
      5.937  0.6022E+00  0.4307E+01
      6.208  0.3379E+00  0.4399E+01
      6.479  0.8967E+00  0.4642E+01
      6.750  0.7255E+00  0.4838E+01
      7.021  0.7128E+00  0.5032E+01
      7.293  0.6075E+00  0.5196E+01
      7.564  0.3868E+00  0.5301E+01
      7.835  0.7182E+00  0.5496E+01
      8.106  0.6802E+00  0.5680E+01
      8.377  0.3858E+00  0.5785E+01
      8.648  0.9896E+00  0.6053E+01
      8.919  0.8016E+00  0.6270E+01
      9.190  0.5942E+00  0.6431E+01
      9.461  0.5830E+00  0.6589E+01
      9.732  0.4511E+00  0.6712E+01
     10.003  0.3854E+00  0.6816E+01
     10.274  0.7628E+00  0.7023E+01
     10.545  0.9487E+00  0.7280E+01
     10.816  0.9221E+00  0.7530E+01
     11.087  0.1091E+01  0.7826E+01
     11.359  0.1062E+01  0.8114E+01
     11.630  0.7073E+00  0.8305E+01
     11.901  0.4711E+00  0.8433E+01
     12.172  0.9348E+00  0.8687E+01
     12.443  0.9547E+00  0.8945E+01
     12.714  0.9612E+00  0.9206E+01
     12.985  0.6348E+00  0.9378E+01
     13.256  0.8504E+00  0.9609E+01
     13.527  0.9909E+00  0.9877E+01
     13.798  0.6676E+00  0.1006E+02
     14.069  0.3037E+00  0.1014E+02
     14.340  0.7887E+00  0.1035E+02
     14.611  0.1173E+01  0.1067E+02
     14.882  0.1026E+01  0.1095E+02
     15.154  0.6033E+00  0.1111E+02
     15.425  0.5598E+00  0.1127E+02
     15.696  0.5490E+00  0.1141E+02
     15.967  0.7843E+00  0.1163E+02
     16.238  0.6360E+00  0.1180E+02
     16.509  0.8647E+00  0.1203E+02
     16.780  0.5613E+00  0.1219E+02
     17.051  0.1387E+01  0.1256E+02
     17.322  0.1029E+01  0.1284E+02
     17.593  0.1088E+01  0.1314E+02
     17.864  0.1221E+01  0.1347E+02
     18.135  0.1105E+01  0.1377E+02
     18.406  0.8513E+00  0.1400E+02
     18.677  0.1576E+01  0.1442E+02
     18.949  0.1091E+01  0.1472E+02
     19.220  0.1005E+01  0.1499E+02
     19.491  0.1132E+01  0.1530E+02
     19.762  0.1565E+01  0.1572E+02
     20.033  0.6626E+00  0.1590E+02
     20.304  0.6441E+00  0.1608E+02
     20.575  0.4160E+00  0.1619E+02
     20.846  0.1154E+01  0.1650E+02
     21.117  0.3599E+00  0.1660E+02
     21.388  0.6265E+00  0.1677E+02
     21.659  0.5110E+00  0.1691E+02
     21.930  0.3060E+00  0.1699E+02
     22.201  0.8972E+00  0.1724E+02
     22.472  0.1378E+01  0.1761E+02
     22.744  0.1143E+01  0.1792E+02
     23.015  0.5407E+00  0.1807E+02
     23.286  0.1153E+01  0.1838E+02
     23.557  0.1502E+01  0.1878E+02
     23.828  0.1352E+01  0.1915E+02
     24.099  0.1233E+01  0.1949E+02
     24.370  0.1198E+01  0.1981E+02
     24.641  0.1454E+01  0.2020E+02
     24.912  0.1529E+01  0.2062E+02
     25.183  0.1010E+01  0.2089E+02
     25.454  0.9067E+00  0.2114E+02
     25.725  0.1219E+01  0.2147E+02
     25.996  0.1003E+01  0.2174E+02
     26.267  0.9494E+00  0.2200E+02
     26.539  0.7067E+00  0.2219E+02
     26.810  0.6180E+00  0.2236E+02
     27.081  0.2939E+00  0.2244E+02
     27.352  0.5669E+00  0.2259E+02
     27.623  0.1149E+01  0.2290E+02
     27.894  0.9681E+00  0.2316E+02
     28.165  0.1304E+01  0.2352E+02
     28.436  0.1043E+01  0.2380E+02
     28.707  0.4268E+00  0.2392E+02
     28.978  0.7621E+00  0.2412E+02
     29.249  0.9030E+00  0.2437E+02
     29.520  0.1271E+01  0.2471E+02
     29.791  0.1056E+01  0.2500E+02
     30.062  0.9387E+00  0.2525E+02
     30.334  0.9761E+00  0.2552E+02
     30.605  0.1167E+01  0.2583E+02
     30.876  0.8446E+00  0.2606E+02
     31.147  0.1006E+01  0.2634E+02
     31.418  0.1214E+01  0.2666E+02
     31.689  0.9221E+00  0.2691E+02
     31.960  0.1037E+01  0.2720E+02
     32.231  0.1246E+01  0.2753E+02
     32.502  0.1525E+01  0.2795E+02
     32.773  0.1388E+01  0.2832E+02
     33.044  0.1700E+01  0.2878E+02
     33.315  0.1245E+01  0.2912E+02
     33.586  0.1243E+01  0.2946E+02
     33.857  0.1543E+01  0.2988E+02
     34.129  0.1093E+01  0.3017E+02
     34.400  0.1170E+01  0.3049E+02
     34.671  0.1775E+01  0.3097E+02
     34.942  0.1347E+01  0.3134E+02
     35.213  0.1079E+01  0.3163E+02
     35.484  0.1378E+01  0.3200E+02
     35.755  0.1285E+01  0.3235E+02
     36.026  0.8226E+00  0.3257E+02
     36.297  0.1266E+01  0.3292E+02
     36.568  0.8745E+00  0.3315E+02
     36.839  0.7942E+00  0.3337E+02
     37.110  0.1384E+01  0.3374E+02
     37.381  0.1427E+01  0.3413E+02
     37.652  0.1194E+01  0.3445E+02
     37.924  0.8163E+00  0.3468E+02
     38.195  0.6676E+00  0.3486E+02
     38.466  0.1139E+01  0.3517E+02
     38.737  0.1127E+01  0.3547E+02
     39.008  0.1500E+01  0.3588E+02
     39.279  0.9837E+00  0.3614E+02
     39.550  0.1120E+01  0.3645E+02
     39.821  0.7628E+00  0.3665E+02
     40.092  0.1175E+01  0.3697E+02
     40.363  0.1048E+01  0.3726E+02
     40.634  0.1271E+01  0.3760E+02
     40.905  0.1420E+01  0.3799E+02
     41.176  0.1129E+01  0.3829E+02
     41.447  0.1008E+01  0.3857E+02
     41.719  0.1653E+01  0.3901E+02
     41.990  0.1823E+01  0.3951E+02
     42.261  0.1291E+01  0.3986E+02
     42.532  0.1657E+01  0.4031E+02
     42.803  0.1474E+01  0.4071E+02
     43.074  0.1072E+01  0.4100E+02
     43.345  0.1458E+01  0.4139E+02
     43.616  0.1462E+01  0.4179E+02
     43.887  0.1781E+01  0.4227E+02
     44.158  0.1261E+01  0.4261E+02
     44.429  0.1274E+01  0.4296E+02
     44.700  0.1427E+01  0.4335E+02
     44.971  0.1759E+01  0.4382E+02
     45.242  0.1274E+01  0.4417E+02
     45.514  0.1557E+01  0.4459E+02
     45.785  0.1241E+01  0.4493E+02
     46.056  0.1039E+01  0.4521E+02
     46.327  0.1217E+01  0.4554E+02
     46.598  0.1383E+01  0.4591E+02
     46.869  0.1425E+01  0.4630E+02
     47.140  0.7519E+00  0.4650E+02
     47.411  0.1531E+01  0.4692E+02
     47.682  0.1390E+01  0.4730E+02
     47.953  0.1382E+01  0.4767E+02
     48.224  0.1443E+01  0.4806E+02
     48.495  0.9862E+00  0.4833E+02
     48.766  0.8030E+00  0.4855E+02
     49.037  0.7926E+00  0.4876E+02
     49.309  0.1465E+01  0.4916E+02
     49.580  0.1392E+01  0.4954E+02
     49.851  0.1366E+01  0.4991E+02
     50.122  0.1751E+01  0.5038E+02
     50.393  0.1252E+01  0.5072E+02
     50.664  0.8062E+00  0.5094E+02
     50.935  0.1497E+01  0.5134E+02
     51.206  0.1815E+01  0.5184E+02
     51.477  0.1413E+01  0.5222E+02
     51.748  0.1525E+01  0.5263E+02
     52.019  0.1599E+01  0.5307E+02
     52.290  0.1529E+01  0.5348E+02
     52.561  0.1118E+01  0.5378E+02
     52.832  0.1731E+01  0.5425E+02
     53.104  0.1823E+01  0.5475E+02
     53.375  0.1626E+01  0.5519E+02
     53.646  0.9844E+00  0.5545E+02
     53.917  0.1393E+01  0.5583E+02
     54.188  0.1025E+01  0.5611E+02
     54.459  0.1059E+01  0.5640E+02
     54.730  0.1723E+01  0.5686E+02
     55.001  0.1296E+01  0.5722E+02
     55.272  0.1585E+01  0.5765E+02
     55.543  0.1600E+01  0.5808E+02
     55.814  0.1571E+01  0.5851E+02
     56.085  0.1837E+01  0.5900E+02
     56.356  0.2181E+01  0.5959E+02
     56.627  0.2206E+01  0.6019E+02
     56.899  0.1984E+01  0.6073E+02
     57.170  0.1604E+01  0.6117E+02
     57.441  0.1189E+01  0.6149E+02
     57.712  0.1270E+01  0.6183E+02
     57.983  0.2088E+01  0.6240E+02
     58.254  0.1801E+01  0.6289E+02
     58.525  0.1729E+01  0.6336E+02
     58.796  0.1969E+01  0.6389E+02
     59.067  0.1838E+01  0.6439E+02
     59.338  0.1238E+01  0.6472E+02
     59.609  0.1511E+01  0.6513E+02
     59.880  0.1567E+01  0.6556E+02
     60.151  0.1352E+01  0.6592E+02
     60.422  0.1407E+01  0.6630E+02
     60.694  0.1344E+01  0.6667E+02
     60.965  0.1234E+01  0.6700E+02
     61.236  0.1811E+01  0.6749E+02
     61.507  0.1849E+01  0.6800E+02
     61.778  0.2266E+01  0.6861E+02
     62.049  0.1816E+01  0.6910E+02
     62.320  0.1777E+01  0.6958E+02
     62.591  0.1258E+01  0.6993E+02
     62.862  0.1714E+01  0.7039E+02
     63.133  0.1681E+01  0.7085E+02
     63.404  0.1623E+01  0.7129E+02
     63.675  0.1903E+01  0.7180E+02
     63.946  0.2653E+01  0.7252E+02
     64.217  0.1809E+01  0.7301E+02
     64.489  0.1912E+01  0.7353E+02
     64.760  0.2437E+01  0.7419E+02
     65.031  0.2237E+01  0.7480E+02
     65.302  0.1726E+01  0.7526E+02
     65.573  0.1885E+01  0.7577E+02
     65.844  0.2263E+01  0.7639E+02
     66.115  0.1371E+01  0.7676E+02
     66.386  0.1836E+01  0.7726E+02
     66.657  0.1791E+01  0.7774E+02
     66.928  0.1590E+01  0.7817E+02
     67.199  0.1220E+01  0.7851E+02
     67.470  0.1155E+01  0.7882E+02
     67.741  0.8231E+00  0.7904E+02
     68.012  0.9465E+00  0.7930E+02
     68.284  0.9720E+00  0.7956E+02
     68.555  0.2608E+00  0.7963E+02
     68.826  0.5026E+00  0.7977E+02
     69.097  0.5201E+00  0.7991E+02
     69.368  0.1763E+00  0.7996E+02
     69.639  0.1631E+00  0.8000E+02
     69.910 -0.4245E-02  0.8000E+02
     70.181 -0.4993E-03  0.8000E+02
     70.452 -0.3249E-06  0.8000E+02
     70.723 -0.4490E-11  0.8000E+02
     70.994  0.0000E+00  0.8000E+02
     71.265  0.0000E+00  0.8000E+02
     71.536  0.0000E+00  0.8000E+02
     71.807  0.0000E+00  0.8000E+02
     72.079  0.0000E+00  0.8000E+02
     72.350  0.0000E+00  0.8000E+02
     72.621  0.0000E+00  0.8000E+02
     72.892  0.0000E+00  0.8000E+02
     73.163  0.0000E+00  0.8000E+02
