       N       E                     dE             d eps       ncg     rms          rms(c)
RMM:   1     0.109392870148E+01    0.10939E+01   -0.27209E+02   310   0.192E+02
RMM:   2    -0.264275711634E+01   -0.37367E+01   -0.33027E+01   310   0.451E+01
RMM:   3    -0.297855948458E+01   -0.33580E+00   -0.26033E+00   310   0.949E+00
RMM:   4    -0.307323147295E+01   -0.94672E-01   -0.43163E-01   310   0.451E+00
RMM:   5    -0.308607609690E+01   -0.12845E-01   -0.92627E-02   310   0.219E+00
RMM:   6    -0.308821638577E+01   -0.21403E-02   -0.19142E-02   310   0.110E+00
RMM:   7    -0.308870127898E+01   -0.48489E-03   -0.44895E-03   310   0.558E-01
RMM:   8    -0.308882316444E+01   -0.12189E-03   -0.11543E-03   310   0.292E-01
RMM:   9    -0.308886460291E+01   -0.41438E-04   -0.40351E-04   624   0.155E-01
RMM:  10    -0.308886956862E+01   -0.49657E-05   -0.49399E-05   594   0.555E-02
RMM:  11    -0.308886983016E+01   -0.26154E-06   -0.25505E-06   450   0.150E-02
RMM:  12    -0.308886992032E+01   -0.90161E-07   -0.87785E-07   420   0.899E-03    0.146E+00
RMM:  13    -0.303803051578E+01    0.50839E-01   -0.13773E-02   620   0.589E-01    0.862E-01
RMM:  14    -0.301174466976E+01    0.26286E-01   -0.32068E-02   620   0.925E-01    0.825E-02
RMM:  15    -0.301165414092E+01    0.90529E-04   -0.71593E-04   620   0.176E-01    0.671E-02
RMM:  16    -0.301149892564E+01    0.15522E-03   -0.16222E-04   620   0.774E-02    0.197E-02
RMM:  17    -0.301149968973E+01   -0.76409E-06   -0.74123E-06   434   0.216E-02
   1 F= -.30114997E+01 E0= -.30119388E+01  d E =-.301150E+01
       N       E                     dE             d eps       ncg     rms          rms(c)
RMM:   1    -0.316364208810E+01   -0.15214E+00   -0.92991E-01   620   0.571E+00    0.952E-01
RMM:   2    -0.311756414973E+01    0.46078E-01   -0.15206E-02   620   0.750E-01    0.498E-01
RMM:   3    -0.310023227111E+01    0.17332E-01   -0.19487E-02   620   0.706E-01    0.628E-02
RMM:   4    -0.310030520227E+01   -0.72931E-04   -0.28102E-04   620   0.128E-01    0.274E-02
RMM:   5    -0.310032867447E+01   -0.23472E-04   -0.28432E-05   602   0.390E-02    0.522E-03
RMM:   6    -0.310032744535E+01    0.12291E-05   -0.24316E-06   400   0.105E-02
   2 F= -.31003274E+01 E0= -.31000911E+01  d E =-.888278E-01
       N       E                     dE             d eps       ncg     rms          rms(c)
RMM:   1    -0.314921895145E+01   -0.48890E-01   -0.41056E-01   620   0.384E+00    0.591E-01
RMM:   2    -0.313282429027E+01    0.16395E-01   -0.50355E-03   620   0.453E-01    0.326E-01
RMM:   3    -0.312564007996E+01    0.71842E-02   -0.77591E-03   620   0.453E-01    0.350E-02
RMM:   4    -0.312567777611E+01   -0.37696E-04   -0.12507E-04   620   0.836E-02    0.127E-02
RMM:   5    -0.312568437941E+01   -0.66033E-05   -0.75121E-06   417   0.213E-02
   3 F= -.31256844E+01 E0= -.31257654E+01  d E =-.114185E+00
       N       E                     dE             d eps       ncg     rms          rms(c)
RMM:   1    -0.320924430508E+01   -0.83567E-01   -0.15514E+00   620   0.776E+00    0.935E-01
RMM:   2    -0.317804761202E+01    0.31197E-01   -0.11876E-02   620   0.775E-01    0.522E-01
RMM:   3    -0.316348769407E+01    0.14560E-01   -0.13463E-02   620   0.627E-01    0.454E-02
RMM:   4    -0.316357055609E+01   -0.82862E-04   -0.33278E-04   620   0.131E-01    0.250E-02
RMM:   5    -0.316358672433E+01   -0.16168E-04   -0.27350E-05   616   0.386E-02    0.384E-03
RMM:   6    -0.316358598822E+01    0.73611E-06   -0.13018E-06   403   0.861E-03
   4 F= -.31635860E+01 E0= -.31633597E+01  d E =-.152086E+00
       N       E                     dE             d eps       ncg     rms          rms(c)
RMM:   1    -0.331020487489E+01   -0.14662E+00   -0.59694E+00   620   0.166E+01    0.180E+00
RMM:   2    -0.324038510148E+01    0.69820E-01   -0.34618E-02   620   0.148E+00    0.111E+00
RMM:   3    -0.319618298486E+01    0.44202E-01   -0.49285E-02   620   0.127E+00    0.142E-01
RMM:   4    -0.319573950377E+01    0.44348E-03   -0.56974E-04   620   0.207E-01    0.944E-02
RMM:   5    -0.319579412051E+01   -0.54617E-04   -0.38359E-04   620   0.127E-01    0.348E-02
RMM:   6    -0.319575377574E+01    0.40345E-04   -0.23544E-05   610   0.291E-02    0.629E-03
RMM:   7    -0.319575351021E+01    0.26553E-06   -0.14689E-06   414   0.817E-03
   5 F= -.31957535E+01 E0= -.31942216E+01  d E =-.184254E+00
       N       E                     dE             d eps       ncg     rms          rms(c)
RMM:   1    -0.324088463514E+01   -0.45131E-01   -0.10600E+00   620   0.661E+00    0.806E-01
RMM:   2    -0.322045181912E+01    0.20433E-01   -0.76016E-03   620   0.612E-01    0.463E-01
RMM:   3    -0.321061254762E+01    0.98393E-02   -0.90957E-03   620   0.527E-01    0.348E-02
RMM:   4    -0.321066315396E+01   -0.50606E-04   -0.19768E-04   620   0.105E-01    0.179E-02
RMM:   5    -0.321067013772E+01   -0.69838E-05   -0.12110E-05   457   0.271E-02
   6 F= -.32106701E+01 E0= -.32110611E+01  d E =-.199170E+00
       N       E                     dE             d eps       ncg     rms          rms(c)
RMM:   1    -0.321487046775E+01   -0.42073E-02   -0.64683E-02   620   0.164E+00    0.188E-01
RMM:   2    -0.321386586756E+01    0.10046E-02   -0.35604E-04   620   0.137E-01    0.109E-01
RMM:   3    -0.321336849373E+01    0.49737E-03   -0.44842E-04   620   0.119E-01    0.860E-03
RMM:   4    -0.321337076622E+01   -0.22725E-05   -0.79534E-06   437   0.234E-02
   7 F= -.32133708E+01 E0= -.32132063E+01  d E =-.201871E+00
       N       E                     dE             d eps       ncg     rms          rms(c)
RMM:   1    -0.324116086718E+01   -0.27792E-01   -0.24785E-01   620   0.363E+00    0.285E-01
RMM:   2    -0.323968319612E+01    0.14777E-02   -0.22061E-03   620   0.377E-01    0.171E-01
RMM:   3    -0.323894793994E+01    0.73526E-03   -0.10742E-03   620   0.205E-01    0.173E-02
RMM:   4    -0.323895600833E+01   -0.80684E-05   -0.23168E-05   561   0.385E-02
   8 F= -.32389560E+01 E0= -.32390886E+01  d E =-.255852E-01
       N       E                     dE             d eps       ncg     rms          rms(c)
RMM:   1    -0.323914887943E+01   -0.20094E-03   -0.86422E-04   620   0.214E-01    0.169E-02
RMM:   2    -0.323914412123E+01    0.47582E-05   -0.57021E-06   461   0.206E-02
   9 F= -.32391441E+01 E0= -.32392890E+01  d E =-.257734E-01
       N       E                     dE             d eps       ncg     rms          rms(c)
RMM:   1    -0.324353778221E+01   -0.43889E-02   -0.58073E-02   620   0.164E+00    0.179E-01
RMM:   2    -0.324265238746E+01    0.88539E-03   -0.40220E-04   620   0.149E-01    0.105E-01
RMM:   3    -0.324219961277E+01    0.45277E-03   -0.43514E-04   620   0.119E-01    0.670E-03
RMM:   4    -0.324220208436E+01   -0.24716E-05   -0.78676E-06   441   0.230E-02
  10 F= -.32422021E+01 E0= -.32424083E+01  d E =-.305796E-02
       N       E                     dE             d eps       ncg     rms          rms(c)
RMM:   1    -0.324262261529E+01   -0.42300E-03   -0.33599E-03   620   0.392E-01    0.431E-02
RMM:   2    -0.324257085116E+01    0.51764E-04   -0.20649E-05   567   0.340E-02    0.254E-02
RMM:   3    -0.324254445624E+01    0.26395E-04   -0.26253E-05   588   0.295E-02    0.168E-03
RMM:   4    -0.324254452710E+01   -0.70864E-07   -0.46401E-07   347   0.589E-03
  11 F= -.32425445E+01 E0= -.32427432E+01  d E =-.340041E-02
       N       E                     dE             d eps       ncg     rms          rms(c)
RMM:   1    -0.324274143656E+01   -0.19698E-03   -0.14292E-03   620   0.263E-01    0.241E-02
RMM:   2    -0.324272537886E+01    0.16058E-04   -0.11209E-05   500   0.270E-02    0.145E-02
RMM:   3    -0.324271731547E+01    0.80634E-05   -0.98665E-06   419   0.202E-02
  12 F= -.32427173E+01 E0= -.32430386E+01  d E =-.172788E-03
