       N       E                     dE             d eps       ncg     rms          rms(c)
RMM:   1     0.127459367062E+01    0.12746E+01   -0.26784E+02   315   0.190E+02
RMM:   2    -0.279119450318E+01   -0.40658E+01   -0.31772E+01   315   0.458E+01
RMM:   3    -0.320692662318E+01   -0.41573E+00   -0.32988E+00   315   0.920E+00
RMM:   4    -0.327403047316E+01   -0.67104E-01   -0.39657E-01   315   0.430E+00
RMM:   5    -0.328175581446E+01   -0.77253E-02   -0.54588E-02   315   0.177E+00
RMM:   6    -0.328290002188E+01   -0.11442E-02   -0.10261E-02   315   0.834E-01
RMM:   7    -0.328313381418E+01   -0.23379E-03   -0.22546E-03   315   0.406E-01
RMM:   8    -0.328319030356E+01   -0.56489E-04   -0.54883E-04   315   0.204E-01
RMM:   9    -0.328320819212E+01   -0.17889E-04   -0.17602E-04   631   0.105E-01
RMM:  10    -0.328321003672E+01   -0.18446E-05   -0.18439E-05   560   0.367E-02
RMM:  11    -0.328321025685E+01   -0.22013E-06   -0.22024E-06   453   0.142E-02
RMM:  12    -0.328321033527E+01   -0.78423E-07   -0.77928E-07   412   0.855E-03    0.833E-01
RMM:  13    -0.327599239536E+01    0.72179E-02   -0.20544E-03   630   0.363E-01    0.502E-01
RMM:  14    -0.327095114566E+01    0.50412E-02   -0.60081E-03   630   0.596E-01    0.925E-02
RMM:  15    -0.327094891666E+01    0.22290E-05   -0.49730E-05   630   0.600E-02
   1 F= -.32709489E+01 E0= -.32710914E+01  d E =-.327095E+01
       N       E                     dE             d eps       ncg     rms          rms(c)
RMM:   1    -0.329554366398E+01   -0.24593E-01   -0.12069E-01   630   0.230E+00    0.249E-01
RMM:   2    -0.329390107695E+01    0.16426E-02   -0.77179E-04   630   0.207E-01    0.147E-01
RMM:   3    -0.329303989866E+01    0.86118E-03   -0.79535E-04   630   0.161E-01    0.123E-02
RMM:   4    -0.329304494715E+01   -0.50485E-05   -0.19442E-05   553   0.334E-02
   2 F= -.32930449E+01 E0= -.32932453E+01  d E =-.220960E-01
       N       E                     dE             d eps       ncg     rms          rms(c)
RMM:   1    -0.329991327971E+01   -0.68734E-02   -0.52454E-02   630   0.152E+00    0.170E-01
RMM:   2    -0.329910171676E+01    0.81156E-03   -0.35503E-04   630   0.139E-01    0.101E-01
RMM:   3    -0.329868398199E+01    0.41773E-03   -0.38861E-04   630   0.112E-01    0.783E-03
RMM:   4    -0.329868583821E+01   -0.18562E-05   -0.77979E-06   444   0.229E-02
   3 F= -.32986858E+01 E0= -.32986240E+01  d E =-.277369E-01
       N       E                     dE             d eps       ncg     rms          rms(c)
RMM:   1    -0.329902694547E+01   -0.34296E-03   -0.32070E-03   630   0.378E-01    0.417E-02
RMM:   2    -0.329897682264E+01    0.50123E-04   -0.23432E-05   600   0.356E-02    0.245E-02
RMM:   3    -0.329895196412E+01    0.24859E-04   -0.23893E-05   614   0.279E-02    0.209E-03
RMM:   4    -0.329895207334E+01   -0.10922E-06   -0.60970E-07   361   0.646E-03
   4 F= -.32989521E+01 E0= -.32987424E+01  d E =-.280032E-01
       N       E                     dE             d eps       ncg     rms          rms(c)
RMM:   1    -0.330294739460E+01   -0.39954E-02   -0.17558E-02   630   0.957E-01    0.870E-02
RMM:   2    -0.330282838656E+01    0.11901E-03   -0.12492E-04   630   0.879E-02    0.523E-02
RMM:   3    -0.330276343783E+01    0.64949E-04   -0.70625E-05   630   0.525E-02    0.333E-03
RMM:   4    -0.330276395605E+01   -0.51822E-06   -0.17482E-06   408   0.111E-02
   5 F= -.33027640E+01 E0= -.33026241E+01  d E =-.381188E-02
       N       E                     dE             d eps       ncg     rms          rms(c)
RMM:   1    -0.330404166283E+01   -0.12782E-02   -0.11089E-02   630   0.764E-01    0.683E-02
RMM:   2    -0.330396984247E+01    0.71820E-04   -0.80943E-05   629   0.710E-02    0.412E-02
RMM:   3    -0.330393012383E+01    0.39719E-04   -0.43573E-05   630   0.415E-02    0.261E-03
RMM:   4    -0.330393039281E+01   -0.26899E-06   -0.10666E-06   403   0.873E-03
   6 F= -.33039304E+01 E0= -.33039242E+01  d E =-.497832E-02
       N       E                     dE             d eps       ncg     rms          rms(c)
RMM:   1    -0.330410310838E+01   -0.17298E-03   -0.95708E-04   630   0.213E-01    0.208E-02
RMM:   2    -0.330409305962E+01    0.10049E-04   -0.60859E-06   474   0.204E-02    0.124E-02
RMM:   3    -0.330408812496E+01    0.49347E-05   -0.58790E-06   392   0.163E-02
   7 F= -.33040881E+01 E0= -.33041267E+01  d E =-.157732E-03
       N       E                     dE             d eps       ncg     rms          rms(c)
RMM:   1    -0.330423971373E+01   -0.14665E-03   -0.22219E-03   630   0.324E-01    0.315E-02
RMM:   2    -0.330421627580E+01    0.23438E-04   -0.16525E-05   561   0.317E-02    0.187E-02
RMM:   3    -0.330420471452E+01    0.11561E-04   -0.12417E-05   457   0.222E-02    0.171E-03
RMM:   4    -0.330420489677E+01   -0.18225E-06   -0.10971E-06   380   0.885E-03
   8 F= -.33042049E+01 E0= -.33042067E+01  d E =-.274504E-03
       N       E                     dE             d eps       ncg     rms          rms(c)
RMM:   1    -0.330441340631E+01   -0.20869E-03   -0.77331E-04   630   0.201E-01    0.208E-02
RMM:   2    -0.330439781886E+01    0.15587E-04   -0.79634E-06   472   0.224E-02    0.119E-02
RMM:   3    -0.330439098149E+01    0.68374E-05   -0.76266E-06   412   0.175E-02
   9 F= -.33043910E+01 E0= -.33043891E+01  d E =-.186085E-03
       N       E                     dE             d eps       ncg     rms          rms(c)
RMM:   1    -0.330512782655E+01   -0.73001E-03   -0.70409E-03   630   0.604E-01    0.598E-02
RMM:   2    -0.330500435481E+01    0.12347E-03   -0.78846E-05   630   0.667E-02    0.343E-02
RMM:   3    -0.330494889678E+01    0.55458E-04   -0.65523E-05   628   0.456E-02    0.348E-03
RMM:   4    -0.330494936330E+01   -0.46652E-06   -0.11238E-06   407   0.896E-03
  10 F= -.33049494E+01 E0= -.33050898E+01  d E =-.744467E-03
       N       E                     dE             d eps       ncg     rms          rms(c)
RMM:   1    -0.330386213974E+01    0.10868E-02   -0.28582E-02   630   0.121E+00    0.106E-01
RMM:   2    -0.330353115538E+01    0.33098E-03   -0.27728E-04   630   0.130E-01    0.614E-02
RMM:   3    -0.330338040270E+01    0.15075E-03   -0.19606E-04   630   0.816E-02    0.662E-03
RMM:   4    -0.330338192608E+01   -0.15234E-05   -0.35744E-06   429   0.161E-02
  11 F= -.33033819E+01 E0= -.33039713E+01  d E =0.822971E-03
       N       E                     dE             d eps       ncg     rms          rms(c)
RMM:   1    -0.330539077942E+01   -0.20104E-02   -0.20870E-02   630   0.103E+00    0.891E-02
RMM:   2    -0.330515604375E+01    0.23474E-03   -0.19275E-04   630   0.108E-01    0.520E-02
RMM:   3    -0.330504997224E+01    0.10607E-03   -0.14018E-04   630   0.690E-02    0.578E-03
RMM:   4    -0.330505086390E+01   -0.89166E-06   -0.25110E-06   426   0.135E-02
  12 F= -.33050509E+01 E0= -.33052610E+01  d E =-.845967E-03
