       N       E                     dE             d eps       ncg     rms          rms(c)
DAV:   1    -0.330312049149E+01   -0.33031E+01   -0.25837E-03  6280   0.613E-02    0.172E-01
DAV:   2    -0.330312312418E+01   -0.26327E-05   -0.20118E-06  6440   0.197E-03
   1 F= -.33031231E+01 E0= -.33033349E+01  d E =0.635248E-03
