 vasp.5.4.4.18Apr17-6-g9f103f2a35 (build Feb 19 2020 16:12:31) complex          
  
 executed on             LinuxIFC date 2024.06.07  02:12:37
 running on   40 total cores
 distrk:  each k-point on   40 cores,    1 groups
 distr:  one band on NCORES_PER_BAND=   1 cores,   40 groups


--------------------------------------------------------------------------------------------------------


 INCAR:
 POTCAR:    PAW_PBE Al 04Jan2001                  

 ----------------------------------------------------------------------------- 
|                                                                             |
|           W    W    AA    RRRRR   N    N  II  N    N   GGGG   !!!           |
|           W    W   A  A   R    R  NN   N  II  NN   N  G    G  !!!           |
|           W    W  A    A  R    R  N N  N  II  N N  N  G       !!!           |
|           W WW W  AAAAAA  RRRRR   N  N N  II  N  N N  G  GGG   !            |
|           WW  WW  A    A  R   R   N   NN  II  N   NN  G    G                |
|           W    W  A    A  R    R  N    N  II  N    N   GGGG   !!!           |
|                                                                             |
|      For optimal performance we recommend to set                            |
|        NCORE= 4 - approx SQRT( number of cores)                             |
|      NCORE specifies how many cores store one orbital (NPAR=cpu/NCORE).     |
|      This setting can  greatly improve the performance of VASP for DFT.     |
|      The default,   NCORE=1            might be grossly inefficient         |
|      on modern multi-core architectures or massively parallel machines.     |
|      Do your own testing !!!!                                               |
|      Unfortunately you need to use the default for GW and RPA calculations. |
|      (for HF NCORE is supported but not extensively tested yet)             |
|                                                                             |
 ----------------------------------------------------------------------------- 

 POTCAR:    PAW_PBE Al 04Jan2001                  
   VRHFIN =Al: s2p1                                                             
   LEXCH  = PE                                                                  
   EATOM  =    53.5387 eV,    3.9350 Ry                                         
                                                                                
   TITEL  = PAW_PBE Al 04Jan2001                                                
   LULTRA =        F    use ultrasoft PP ?                                      
   IUNSCR =        1    unscreen: 0-lin 1-nonlin 2-no                           
   RPACOR =    1.500    partial core radius                                     
   POMASS =   26.981; ZVAL   =    3.000    mass and valenz                      
   RCORE  =    1.900    outmost cutoff radius                                   
   RWIGS  =    2.650; RWIGS  =    1.402    wigner-seitz radius (au A)           
   ENMAX  =  240.300; ENMIN  =  180.225 eV                                      
   ICORE  =        2    local potential                                         
   LCOR   =        T    correct aug charges                                     
   LPAW   =        T    paw PP                                                  
   EAUG   =  291.052                                                            
   DEXC   =    0.000                                                            
   RMAX   =    1.939    core radius for proj-oper                               
   RAUG   =    1.300    factor for augmentation sphere                          
   RDEP   =    1.966    radius for radial grids                                 
   RDEPT  =    1.856    core radius for aug-charge                              
                                                                                
   Atomic configuration                                                         
    6 entries                                                                   
     n  l   j            E        occ.                                          
     1  0  0.50     -1511.1048   2.0000                                         
     2  0  0.50      -108.1629   2.0000                                         
     2  1  1.50       -69.6402   6.0000                                         
     3  0  0.50        -7.7528   2.0000                                         
     3  1  1.50        -2.7121   1.0000                                         
     3  2  2.50        -2.7212   0.0000                                         
   Description                                                                  
     l       E           TYP  RCUT    TYP  RCUT                                 
     0     -7.7528455     23  1.900                                             
     0     -3.3096929     23  1.900                                             
     1     -2.7120682     23  1.900                                             
     1     13.6058260     23  1.900                                             
     2     -2.7211652      7  1.900                                             
  local pseudopotential read in
  partial core-charges read in
  partial kinetic energy density read in
  atomic valenz-charges read in
  non local Contribution for L=           0  read in
    real space projection operators read in
  non local Contribution for L=           0  read in
    real space projection operators read in
  non local Contribution for L=           1  read in
    real space projection operators read in
  non local Contribution for L=           1  read in
    real space projection operators read in
    PAW grid and wavefunctions read in
 
   number of l-projection  operators is LMAX  =           4
   number of lm-projection operators is LMMAX =           8
 
  PAW_PBE Al 04Jan2001                  :
 energy of atom  1       EATOM=  -53.5387
 kinetic energy error for atom=    0.0029 (will be added to EATOM!!)
 
 
 POSCAR: Al1                                     
  positions in direct lattice
  velocities in cartesian coordinates
 exchange correlation table for  LEXCH =        8
   RHO(1)=    0.500       N(1)  =     2000
   RHO(2)=  100.500       N(2)  =     4000
 


--------------------------------------------------------------------------------------------------------


 ion  position               nearest neighbor table
   1  0.924  0.419  0.934-
 
  LATTYP: Found a triclinic cell.
 ALAT       =     4.7814727304
 B/A-ratio  =     1.3951565775
 C/A-ratio  =     0.6750543644
 COS(alpha) =     0.0017148928
 COS(beta)  =     0.3531433428
 COS(gamma) =     0.9012496757
  
  Lattice vectors:
  
 A1 = (   2.3114768909,   3.3673960538,   2.4860007786)
 A2 = (   1.5463299013,   3.3907011994,   5.5328977744)
 A3 = (   3.0530901566,   0.2699226443,  -1.0120169813)


Analysis of symmetry for initial positions (statically):
=====================================================================
 Subroutine PRICEL returns:
 Original cell was already a primitive cell.
 

 Routine SETGRP: Setting up the symmetry group for a 
 triclinic supercell.


 Subroutine GETGRP returns: Found  2 space group operations
 (whereof  1 operations were pure point group operations)
 out of a pool of  2 trial point group operations.


The static configuration has the point symmetry C_1 .
 The point group associated with its full space group is S_2 .


Analysis of symmetry for dynamics (positions and initial velocities):
=====================================================================
 Subroutine PRICEL returns:
 Original cell was already a primitive cell.
 

 Routine SETGRP: Setting up the symmetry group for a 
 triclinic supercell.


 Subroutine GETGRP returns: Found  2 space group operations
 (whereof  1 operations were pure point group operations)
 out of a pool of  2 trial point group operations.


The dynamic configuration has the point symmetry C_1 .
 The point group associated with its full space group is S_2 .


 Subroutine INISYM returns: Found  2 space group operations
 (whereof  1 operations are pure point group operations),
 and found     1 'primitive' translations

 
 

Automatic generation of k-mesh.
 generate k-points for:    5    5    5
Space group operators:
 irot       det(A)        alpha          n_x          n_y          n_z        tau_x        tau_y        tau_z
    1     1.000000     0.000001     1.000000     0.000000     0.000000     0.000000     0.000000     0.000000
    2    -1.000000     0.000001     1.000000     0.000000     0.000000     0.847440     0.837447     0.867715
 
 Subroutine IBZKPT returns following result:
 ===========================================
 
 Found     63 irreducible k-points:
 
 Following reciprocal coordinates:
            Coordinates               Weight
  0.000000  0.000000  0.000000      1.000000
  0.200000  0.000000  0.000000      2.000000
  0.400000  0.000000  0.000000      2.000000
 -0.000000  0.200000  0.000000      2.000000
  0.200000  0.200000  0.000000      2.000000
  0.400000  0.200000 -0.000000      2.000000
 -0.400000  0.200000 -0.000000      2.000000
 -0.200000  0.200000 -0.000000      2.000000
 -0.000000  0.400000  0.000000      2.000000
  0.200000  0.400000  0.000000      2.000000
  0.400000  0.400000  0.000000      2.000000
 -0.400000  0.400000 -0.000000      2.000000
 -0.200000  0.400000 -0.000000      2.000000
  0.000000 -0.000000  0.200000      2.000000
  0.200000  0.000000  0.200000      2.000000
  0.400000 -0.000000  0.200000      2.000000
 -0.400000 -0.000000  0.200000      2.000000
 -0.200000 -0.000000  0.200000      2.000000
  0.000000  0.200000  0.200000      2.000000
  0.200000  0.200000  0.200000      2.000000
  0.400000  0.200000  0.200000      2.000000
 -0.400000  0.200000  0.200000      2.000000
 -0.200000  0.200000  0.200000      2.000000
  0.000000  0.400000  0.200000      2.000000
  0.200000  0.400000  0.200000      2.000000
  0.400000  0.400000  0.200000      2.000000
 -0.400000  0.400000  0.200000      2.000000
 -0.200000  0.400000  0.200000      2.000000
  0.000000 -0.400000  0.200000      2.000000
  0.200000 -0.400000  0.200000      2.000000
  0.400000 -0.400000  0.200000      2.000000
 -0.400000 -0.400000  0.200000      2.000000
 -0.200000 -0.400000  0.200000      2.000000
  0.000000 -0.200000  0.200000      2.000000
  0.200000 -0.200000  0.200000      2.000000
  0.400000 -0.200000  0.200000      2.000000
 -0.400000 -0.200000  0.200000      2.000000
 -0.200000 -0.200000  0.200000      2.000000
  0.000000 -0.000000  0.400000      2.000000
  0.200000 -0.000000  0.400000      2.000000
  0.400000  0.000000  0.400000      2.000000
 -0.400000 -0.000000  0.400000      2.000000
 -0.200000  0.000000  0.400000      2.000000
  0.000000  0.200000  0.400000      2.000000
  0.200000  0.200000  0.400000      2.000000
  0.400000  0.200000  0.400000      2.000000
 -0.400000  0.200000  0.400000      2.000000
 -0.200000  0.200000  0.400000      2.000000
  0.000000  0.400000  0.400000      2.000000
  0.200000  0.400000  0.400000      2.000000
  0.400000  0.400000  0.400000      2.000000
 -0.400000  0.400000  0.400000      2.000000
 -0.200000  0.400000  0.400000      2.000000
  0.000000 -0.400000  0.400000      2.000000
  0.200000 -0.400000  0.400000      2.000000
  0.400000 -0.400000  0.400000      2.000000
 -0.400000 -0.400000  0.400000      2.000000
 -0.200000 -0.400000  0.400000      2.000000
  0.000000 -0.200000  0.400000      2.000000
  0.200000 -0.200000  0.400000      2.000000
  0.400000 -0.200000  0.400000      2.000000
 -0.400000 -0.200000  0.400000      2.000000
 -0.200000 -0.200000  0.400000      2.000000
 
 Following cartesian coordinates:
            Coordinates               Weight
  0.000000  0.000000  0.000000      1.000000
  0.071773 -0.003198  0.018048      2.000000
  0.143545 -0.006396  0.036096      2.000000
 -0.006490  0.065421 -0.002130      2.000000
  0.065283  0.062223  0.015918      2.000000
  0.137055  0.059025  0.033966      2.000000
 -0.150035  0.071816 -0.038227      2.000000
 -0.078263  0.068618 -0.020178      2.000000
 -0.012980  0.130841 -0.004260      2.000000
  0.058793  0.127643  0.013788      2.000000
  0.130565  0.124445  0.031836      2.000000
 -0.156525  0.137237 -0.040357      2.000000
 -0.084752  0.134039 -0.022309      2.000000
  0.024800 -0.010748  0.071951      2.000000
  0.096573 -0.013946  0.089999      2.000000
  0.168345 -0.017144  0.108047      2.000000
 -0.118745 -0.004352  0.035854      2.000000
 -0.046973 -0.007550  0.053902      2.000000
  0.018310  0.054672  0.069820      2.000000
  0.090083  0.051474  0.087869      2.000000
  0.161855  0.048276  0.105917      2.000000
 -0.125235  0.061068  0.033724      2.000000
 -0.053463  0.057870  0.051772      2.000000
  0.011820  0.120093  0.067690      2.000000
  0.083593  0.116895  0.085739      2.000000
  0.155365  0.113697  0.103787      2.000000
 -0.131725  0.126489  0.031594      2.000000
 -0.059952  0.123291  0.049642      2.000000
  0.037780 -0.141589  0.076211      2.000000
  0.109552 -0.144787  0.094259      2.000000
  0.181325 -0.147985  0.112307      2.000000
 -0.105766 -0.135193  0.040114      2.000000
 -0.033993 -0.138391  0.058163      2.000000
  0.031290 -0.076169  0.074081      2.000000
  0.103062 -0.079367  0.092129      2.000000
  0.174835 -0.082565  0.110177      2.000000
 -0.112255 -0.069773  0.037984      2.000000
 -0.040483 -0.072971  0.056033      2.000000
  0.049600 -0.021497  0.143901      2.000000
  0.121373 -0.024695  0.161949      2.000000
  0.193145 -0.027892  0.179998      2.000000
 -0.093945 -0.015101  0.107805      2.000000
 -0.022173 -0.018299  0.125853      2.000000
  0.043110  0.043924  0.141771      2.000000
  0.114883  0.040726  0.159819      2.000000
  0.186655  0.037528  0.177868      2.000000
 -0.100435  0.050320  0.105675      2.000000
 -0.028663  0.047122  0.123723      2.000000
  0.036620  0.109344  0.139641      2.000000
  0.108393  0.106147  0.157689      2.000000
  0.180165  0.102949  0.175737      2.000000
 -0.106925  0.115740  0.103544      2.000000
 -0.035153  0.112542  0.121593      2.000000
  0.062580 -0.152338  0.148162      2.000000
  0.134352 -0.155536  0.166210      2.000000
  0.206125 -0.158734  0.184258      2.000000
 -0.080966 -0.145942  0.112065      2.000000
 -0.009193 -0.149140  0.130113      2.000000
  0.056090 -0.086917  0.146031      2.000000
  0.127862 -0.090115  0.164080      2.000000
  0.199635 -0.093313  0.182128      2.000000
 -0.087456 -0.080521  0.109935      2.000000
 -0.015683 -0.083719  0.127983      2.000000
 


--------------------------------------------------------------------------------------------------------




 Dimension of arrays:
   k-points           NKPTS =     63   k-points in BZ     NKDIM =     63   number of bands    NBANDS=     40
   number of dos      NEDOS =    301   number of ions     NIONS =      1
   non local maximal  LDIM  =      4   non local SUM 2l+1 LMDIM =      8
   total plane-waves  NPLWV =   1728
   max r-space proj   IRMAX =      1   max aug-charges    IRDMAX=   2779
   dimension x,y,z NGX =    12 NGY =   12 NGZ =   12
   dimension x,y,z NGXF=    24 NGYF=   24 NGZF=   24
   support grid    NGXF=    24 NGYF=   24 NGZF=   24
   ions per type =               1
   NGX,Y,Z   is equivalent  to a cutoff of   6.18,  6.42,  6.35 a.u.
   NGXF,Y,Z  is equivalent  to a cutoff of  12.36, 12.84, 12.70 a.u.

 SYSTEM =  unknown system                          
 POSCAR =  Al1                                     

 Startparameter for this run:
   NWRITE =      2    write-flag & timer
   PREC   = normal    normal or accurate (medium, high low for compatibility)
   ISTART =      1    job   : 0-new  1-cont  2-samecut
   ICHARG =      0    charge: 1-file 2-atom 10-const
   ISPIN  =      1    spin polarized calculation?
   LNONCOLLINEAR =      F non collinear calculations
   LSORBIT =      F    spin-orbit coupling
   INIWAV =      1    electr: 0-lowe 1-rand  2-diag
   LASPH  =      F    aspherical Exc in radial PAW
   METAGGA=      F    non-selfconsistent MetaGGA calc.

 Electronic Relaxation 1
   ENCUT  =  240.3 eV  17.66 Ry    4.20 a.u.   4.08  3.93  3.97*2*pi/ulx,y,z
   ENINI  =  240.3     initial cutoff
   ENAUG  =  291.1 eV  augmentation charge cutoff
   NELM   =    240;   NELMIN=  2; NELMDL=  0     # of ELM steps 
   EDIFF  = 0.1E-04   stopping-criterion for ELM
   LREAL  =      F    real-space projection
   NLSPLINE    = F    spline interpolate recip. space projectors
   LCOMPAT=      F    compatible to vasp.4.4
   GGA_COMPAT  = T    GGA compatible to vasp.4.4-vasp.4.6
   LMAXPAW     = -100 max onsite density
   LMAXMIX     =    2 max onsite mixed and CHGCAR
   VOSKOWN=      0    Vosko Wilk Nusair interpolation
   ROPT   =    0.00000
 Ionic relaxation
   EDIFFG = 0.1E-03   stopping-criterion for IOM
   NSW    =      0    number of steps for IOM
   NBLOCK =      1;   KBLOCK =      1    inner block; outer block 
   IBRION =     -1    ionic relax: 0-MD 1-quasi-New 2-CG
   NFREE  =      0    steps in history (QN), initial steepest desc. (CG)
   ISIF   =      2    stress and relaxation
   IWAVPR =     10    prediction:  0-non 1-charg 2-wave 3-comb
   ISYM   =      2    0-nonsym 1-usesym 2-fastsym
   LCORR  =      T    Harris-Foulkes like correction to forces

   POTIM  = 0.5000    time-step for ionic-motion
   TEIN   =    0.0    initial temperature
   TEBEG  =    0.0;   TEEND  =   0.0 temperature during run
   SMASS  =  -3.00    Nose mass-parameter (am)
   estimated Nose-frequenzy (Omega)   =  0.10E-29 period in steps =****** mass=  -0.238E-27a.u.
   SCALEE = 1.0000    scale energy and forces
   NPACO  =    256;   APACO  = 16.0  distance and # of slots for P.C.
   PSTRESS=    0.0 pullay stress

  Mass of Ions in am
   POMASS =  26.98
  Ionic Valenz
   ZVAL   =   3.00
  Atomic Wigner-Seitz radii
   RWIGS  =  -1.00
  virtual crystal weights 
   VCA    =   1.00
   NELECT =       3.0000    total number of electrons
   NUPDOWN=      -1.0000    fix difference up-down

 DOS related values:
   EMIN   =  10.00;   EMAX   =-10.00  energy-range for DOS
   EFERMI =   0.00
   ISMEAR =     1;   SIGMA  =   0.20  broadening in eV -4-tet -1-fermi 0-gaus

 Electronic relaxation 2 (details)
   IALGO  =     38    algorithm
   LDIAG  =      T    sub-space diagonalisation (order eigenvalues)
   LSUBROT=      F    optimize rotation matrix (better conditioning)
   TURBO    =      0    0=normal 1=particle mesh
   IRESTART =      0    0=no restart 2=restart with 2 vectors
   NREBOOT  =      0    no. of reboots
   NMIN     =      0    reboot dimension
   EREF     =   0.00    reference energy to select bands
   IMIX   =      4    mixing-type and parameters
     AMIX     =   0.40;   BMIX     =  1.00
     AMIX_MAG =   1.60;   BMIX_MAG =  1.00
     AMIN     =   0.10
     WC   =   100.;   INIMIX=   1;  MIXPRE=   1;  MAXMIX= -45

 Intra band minimization:
   WEIMIN = 0.0000     energy-eigenvalue tresh-hold
   EBREAK =  0.63E-07  absolut break condition
   DEPER  =   0.30     relativ break condition  

   TIME   =   0.40     timestep for ELM

  volume/ion in A,a.u.               =      26.07       175.94
  Fermi-wavevector in a.u.,A,eV,Ry     =   0.796268  1.504727  8.626664  0.634042
  Thomas-Fermi vector in A             =   1.902757
 
 Write flags
   LWAVE        =      T    write WAVECAR
   LDOWNSAMPLE  =      F    k-point downsampling of WAVECAR
   LCHARG       =      T    write CHGCAR
   LVTOT        =      F    write LOCPOT, total local potential
   LVHAR        =      F    write LOCPOT, Hartree potential only
   LELF         =      F    write electronic localiz. function (ELF)
   LORBIT       =      0    0 simple, 1 ext, 2 COOP (PROOUT), +10 PAW based schemes


 Dipole corrections
   LMONO  =      F    monopole corrections only (constant potential shift)
   LDIPOL =      F    correct potential (dipole corrections)
   IDIPOL =      0    1-x, 2-y, 3-z, 4-all directions 
   EPSILON=  1.0000000 bulk dielectric constant

 Exchange correlation treatment:
   GGA     =    --    GGA type
   LEXCH   =     8    internal setting for exchange type
   VOSKOWN=      0    Vosko Wilk Nusair interpolation
   LHFCALC =     F    Hartree Fock is set to
   LHFONE  =     F    Hartree Fock one center treatment
   AEXX    =    0.0000 exact exchange contribution

 Linear response parameters
   LEPSILON=     F    determine dielectric tensor
   LRPA    =     F    only Hartree local field effects (RPA)
   LNABLA  =     F    use nabla operator in PAW spheres
   LVEL    =     F    velocity operator in full k-point grid
   LINTERFAST=   F  fast interpolation
   KINTER  =     0    interpolate to denser k-point grid
   CSHIFT  =0.1000    complex shift for real part using Kramers Kronig
   OMEGAMAX=  -1.0    maximum frequency
   DEG_THRESHOLD= 0.2000000E-02 threshold for treating states as degnerate
   RTIME   =   -0.100 relaxation time in fs
  (WPLASMAI=    0.000 imaginary part of plasma frequency in eV, 0.658/RTIME)
   DFIELD  = 0.0000000 0.0000000 0.0000000 field for delta impulse in time
 
 Orbital magnetization related:
   ORBITALMAG=     F  switch on orbital magnetization
   LCHIMAG   =     F  perturbation theory with respect to B field
   DQ        =  0.001000  dq finite difference perturbation B field
   LLRAUG    =     F  two centre corrections for induced B field



--------------------------------------------------------------------------------------------------------


 Static calculation
 charge density and potential will be updated during run
 non-spin polarized calculation
 Variant of blocked Davidson
 Davidson routine will perform the subspace rotation
 perform sub-space diagonalisation
    after iterative eigenvector-optimisation
 modified Broyden-mixing scheme, WC =      100.0
 initial mixing is a Kerker type mixing with AMIX =  0.4000 and BMIX =      1.0000
 Hartree-type preconditioning will be used
 using additional bands           38
 reciprocal scheme for non local part
 use partial core corrections
 calculate Harris-corrections to forces 
   (improved forces if not selfconsistent)
 use gradient corrections 
 use of overlap-Matrix (Vanderbilt PP)
 Methfessel and Paxton  Order N= 1 SIGMA  =   0.20


--------------------------------------------------------------------------------------------------------


  energy-cutoff  :      240.30
  volume of cell :       26.07
      direct lattice vectors                 reciprocal lattice vectors
     3.053090157  0.269922644 -1.012016981     0.358863179 -0.015989716  0.090241227
     0.023533724  3.074168264  0.451120764    -0.032449469  0.327102602 -0.010650766
    -0.765146990  0.023305146  3.046896996     0.123999683 -0.053741443  0.359753033

  length of vectors
     3.227754035  3.107181085  3.141587871     0.370380793  0.328880707  0.384299764


 
 old parameters found on file WAVECAR:
  energy-cutoff  :      400.00
  volume of cell :       26.07
      direct lattice vectors                 reciprocal lattice vectors
     2.952707012  0.259821612 -1.148898014     0.377888035 -0.019637888  0.096344758
     0.021059035  3.050667541  0.539216767    -0.035965919  0.331146585 -0.017545320
    -0.822813529  0.082517826  3.244098259     0.139807183 -0.061996187  0.345288873

  length of vectors

 
 k-points in units of 2pi/SCALE and weight: read from INCAR                         
   0.00000000  0.00000000  0.00000000       0.008
   0.07177264 -0.00319794  0.01804825       0.016
   0.14354527 -0.00639589  0.03609649       0.016
  -0.00648989  0.06542052 -0.00213015       0.016
   0.06528274  0.06222258  0.01591809       0.016
   0.13705538  0.05902463  0.03396634       0.016
  -0.15003517  0.07181641 -0.03822664       0.016
  -0.07826253  0.06861846 -0.02017840       0.016
  -0.01297979  0.13084104 -0.00426031       0.016
   0.05879285  0.12764310  0.01378794       0.016
   0.13056548  0.12444515  0.03183618       0.016
  -0.15652506  0.13723693 -0.04035680       0.016
  -0.08475242  0.13403898 -0.02230855       0.016
   0.02479994 -0.01074829  0.07195061       0.016
   0.09657257 -0.01394623  0.08999885       0.016
   0.16834521 -0.01714418  0.10804710       0.016
  -0.11874534 -0.00435240  0.03585412       0.016
  -0.04697270 -0.00755035  0.05390236       0.016
   0.01831004  0.05467223  0.06982045       0.016
   0.09008268  0.05147429  0.08786870       0.016
   0.16185531  0.04827635  0.10591694       0.016
  -0.12523523  0.06106812  0.03372396       0.016
  -0.05346259  0.05787018  0.05177221       0.016
   0.01182015  0.12009275  0.06769030       0.016
   0.08359278  0.11689481  0.08573855       0.016
   0.15536542  0.11369687  0.10378679       0.016
  -0.13172512  0.12648864  0.03159381       0.016
  -0.05995249  0.12329070  0.04964205       0.016
   0.03777972 -0.14158933  0.07621091       0.016
   0.10955236 -0.14478727  0.09425916       0.016
   0.18132500 -0.14798522  0.11230740       0.016
  -0.10576555 -0.13519344  0.04011442       0.016
  -0.03399291 -0.13839139  0.05816267       0.016
   0.03128983 -0.07616881  0.07408076       0.016
   0.10306247 -0.07936675  0.09212901       0.016
   0.17483510 -0.08256470  0.11017725       0.016
  -0.11225544 -0.06977292  0.03798427       0.016
  -0.04048281 -0.07297087  0.05603251       0.016
   0.04959987 -0.02149658  0.14390121       0.016
   0.12137251 -0.02469452  0.16194946       0.016
   0.19314514 -0.02789246  0.17999770       0.016
  -0.09394540 -0.01510069  0.10780472       0.016
  -0.02217276 -0.01829863  0.12585297       0.016
   0.04310998  0.04392394  0.14177106       0.016
   0.11488262  0.04072600  0.15981931       0.016
   0.18665525  0.03752806  0.17786755       0.016
  -0.10043529  0.05031983  0.10567457       0.016
  -0.02866266  0.04712189  0.12372281       0.016
   0.03662009  0.10934446  0.13964091       0.016
   0.10839272  0.10614652  0.15768915       0.016
   0.18016536  0.10294858  0.17573740       0.016
  -0.10692519  0.11574035  0.10354442       0.016
  -0.03515255  0.11254241  0.12159266       0.016
   0.06257966 -0.15233762  0.14816152       0.016
   0.13435230 -0.15553556  0.16620977       0.016
   0.20612493 -0.15873350  0.18425801       0.016
  -0.08096561 -0.14594173  0.11206503       0.016
  -0.00919298 -0.14913967  0.13011327       0.016
   0.05608977 -0.08691710  0.14603137       0.016
   0.12786240 -0.09011504  0.16407961       0.016
   0.19963504 -0.09331298  0.18212786       0.016
  -0.08745550 -0.08052121  0.10993488       0.016
  -0.01568287 -0.08371915  0.12798312       0.016
 
 k-points in reciprocal lattice and weights: read from INCAR                         
   0.00000000  0.00000000  0.00000000       0.008
   0.20000000  0.00000000  0.00000000       0.016
   0.40000000  0.00000000  0.00000000       0.016
  -0.00000000  0.20000000  0.00000000       0.016
   0.20000000  0.20000000  0.00000000       0.016
   0.40000000  0.20000000 -0.00000000       0.016
  -0.40000000  0.20000000 -0.00000000       0.016
  -0.20000000  0.20000000 -0.00000000       0.016
  -0.00000000  0.40000000  0.00000000       0.016
   0.20000000  0.40000000  0.00000000       0.016
   0.40000000  0.40000000  0.00000000       0.016
  -0.40000000  0.40000000 -0.00000000       0.016
  -0.20000000  0.40000000 -0.00000000       0.016
   0.00000000 -0.00000000  0.20000000       0.016
   0.20000000  0.00000000  0.20000000       0.016
   0.40000000 -0.00000000  0.20000000       0.016
  -0.40000000 -0.00000000  0.20000000       0.016
  -0.20000000 -0.00000000  0.20000000       0.016
   0.00000000  0.20000000  0.20000000       0.016
   0.20000000  0.20000000  0.20000000       0.016
   0.40000000  0.20000000  0.20000000       0.016
  -0.40000000  0.20000000  0.20000000       0.016
  -0.20000000  0.20000000  0.20000000       0.016
   0.00000000  0.40000000  0.20000000       0.016
   0.20000000  0.40000000  0.20000000       0.016
   0.40000000  0.40000000  0.20000000       0.016
  -0.40000000  0.40000000  0.20000000       0.016
  -0.20000000  0.40000000  0.20000000       0.016
   0.00000000 -0.40000000  0.20000000       0.016
   0.20000000 -0.40000000  0.20000000       0.016
   0.40000000 -0.40000000  0.20000000       0.016
  -0.40000000 -0.40000000  0.20000000       0.016
  -0.20000000 -0.40000000  0.20000000       0.016
   0.00000000 -0.20000000  0.20000000       0.016
   0.20000000 -0.20000000  0.20000000       0.016
   0.40000000 -0.20000000  0.20000000       0.016
  -0.40000000 -0.20000000  0.20000000       0.016
  -0.20000000 -0.20000000  0.20000000       0.016
   0.00000000 -0.00000000  0.40000000       0.016
   0.20000000 -0.00000000  0.40000000       0.016
   0.40000000  0.00000000  0.40000000       0.016
  -0.40000000 -0.00000000  0.40000000       0.016
  -0.20000000  0.00000000  0.40000000       0.016
   0.00000000  0.20000000  0.40000000       0.016
   0.20000000  0.20000000  0.40000000       0.016
   0.40000000  0.20000000  0.40000000       0.016
  -0.40000000  0.20000000  0.40000000       0.016
  -0.20000000  0.20000000  0.40000000       0.016
   0.00000000  0.40000000  0.40000000       0.016
   0.20000000  0.40000000  0.40000000       0.016
   0.40000000  0.40000000  0.40000000       0.016
  -0.40000000  0.40000000  0.40000000       0.016
  -0.20000000  0.40000000  0.40000000       0.016
   0.00000000 -0.40000000  0.40000000       0.016
   0.20000000 -0.40000000  0.40000000       0.016
   0.40000000 -0.40000000  0.40000000       0.016
  -0.40000000 -0.40000000  0.40000000       0.016
  -0.20000000 -0.40000000  0.40000000       0.016
   0.00000000 -0.20000000  0.40000000       0.016
   0.20000000 -0.20000000  0.40000000       0.016
   0.40000000 -0.20000000  0.40000000       0.016
  -0.40000000 -0.20000000  0.40000000       0.016
  -0.20000000 -0.20000000  0.40000000       0.016
 
 position of ions in fractional coordinates (direct lattice) 
   0.92371990  0.41872333  0.93385728
 
 position of ions in cartesian coordinates  (Angst):
   2.11551616  1.55832258  2.09944152
 


--------------------------------------------------------------------------------------------------------


 k-point  1 :   0.0000 0.0000 0.0000  plane waves:     207
 k-point  2 :   0.2000 0.0000 0.0000  plane waves:     211
 k-point  3 :   0.4000 0.0000 0.0000  plane waves:     221
 k-point  4 :  -0.0000 0.2000 0.0000  plane waves:     216
 k-point  5 :   0.2000 0.2000 0.0000  plane waves:     214
 k-point  6 :   0.4000 0.2000-0.0000  plane waves:     222
 k-point  7 :  -0.4000 0.2000-0.0000  plane waves:     218
 k-point  8 :  -0.2000 0.2000-0.0000  plane waves:     216
 k-point  9 :  -0.0000 0.4000 0.0000  plane waves:     218
 k-point 10 :   0.2000 0.4000 0.0000  plane waves:     220
 k-point 11 :   0.4000 0.4000 0.0000  plane waves:     225
 k-point 12 :  -0.4000 0.4000-0.0000  plane waves:     217
 k-point 13 :  -0.2000 0.4000-0.0000  plane waves:     223
 k-point 14 :   0.0000-0.0000 0.2000  plane waves:     216
 k-point 15 :   0.2000 0.0000 0.2000  plane waves:     219
 k-point 16 :   0.4000-0.0000 0.2000  plane waves:     224
 k-point 17 :  -0.4000-0.0000 0.2000  plane waves:     219
 k-point 18 :  -0.2000-0.0000 0.2000  plane waves:     215
 k-point 19 :   0.0000 0.2000 0.2000  plane waves:     212
 k-point 20 :   0.2000 0.2000 0.2000  plane waves:     225
 k-point 21 :   0.4000 0.2000 0.2000  plane waves:     225
 k-point 22 :  -0.4000 0.2000 0.2000  plane waves:     224
 k-point 23 :  -0.2000 0.2000 0.2000  plane waves:     216
 k-point 24 :   0.0000 0.4000 0.2000  plane waves:     218
 k-point 25 :   0.2000 0.4000 0.2000  plane waves:     224
 k-point 26 :   0.4000 0.4000 0.2000  plane waves:     221
 k-point 27 :  -0.4000 0.4000 0.2000  plane waves:     228
 k-point 28 :  -0.2000 0.4000 0.2000  plane waves:     222
 k-point 29 :   0.0000-0.4000 0.2000  plane waves:     221
 k-point 30 :   0.2000-0.4000 0.2000  plane waves:     222
 k-point 31 :   0.4000-0.4000 0.2000  plane waves:     224
 k-point 32 :  -0.4000-0.4000 0.2000  plane waves:     226
 k-point 33 :  -0.2000-0.4000 0.2000  plane waves:     221
 k-point 34 :   0.0000-0.2000 0.2000  plane waves:     217
 k-point 35 :   0.2000-0.2000 0.2000  plane waves:     220
 k-point 36 :   0.4000-0.2000 0.2000  plane waves:     220
 k-point 37 :  -0.4000-0.2000 0.2000  plane waves:     220
 k-point 38 :  -0.2000-0.2000 0.2000  plane waves:     220
 k-point 39 :   0.0000-0.0000 0.4000  plane waves:     224
 k-point 40 :   0.2000-0.0000 0.4000  plane waves:     224
 k-point 41 :   0.4000 0.0000 0.4000  plane waves:     222
 k-point 42 :  -0.4000-0.0000 0.4000  plane waves:     216
 k-point 43 :  -0.2000 0.0000 0.4000  plane waves:     223
 k-point 44 :   0.0000 0.2000 0.4000  plane waves:     223
 k-point 45 :   0.2000 0.2000 0.4000  plane waves:     221
 k-point 46 :   0.4000 0.2000 0.4000  plane waves:     222
 k-point 47 :  -0.4000 0.2000 0.4000  plane waves:     220
 k-point 48 :  -0.2000 0.2000 0.4000  plane waves:     218
 k-point 49 :   0.0000 0.4000 0.4000  plane waves:     223
 k-point 50 :   0.2000 0.4000 0.4000  plane waves:     222
 k-point 51 :   0.4000 0.4000 0.4000  plane waves:     225
 k-point 52 :  -0.4000 0.4000 0.4000  plane waves:     225
 k-point 53 :  -0.2000 0.4000 0.4000  plane waves:     222
 k-point 54 :   0.0000-0.4000 0.4000  plane waves:     221
 k-point 55 :   0.2000-0.4000 0.4000  plane waves:     221
 k-point 56 :   0.4000-0.4000 0.4000  plane waves:     225
 k-point 57 :  -0.4000-0.4000 0.4000  plane waves:     226
 k-point 58 :  -0.2000-0.4000 0.4000  plane waves:     218
 k-point 59 :   0.0000-0.2000 0.4000  plane waves:     222
 k-point 60 :   0.2000-0.2000 0.4000  plane waves:     222
 k-point 61 :   0.4000-0.2000 0.4000  plane waves:     221
 k-point 62 :  -0.4000-0.2000 0.4000  plane waves:     225
 k-point 63 :  -0.2000-0.2000 0.4000  plane waves:     225

 maximum and minimum number of plane-waves per node :       228      207

 maximum number of plane-waves:       228
 maximum index in each direction: 
   IXMAX=    4   IYMAX=    4   IZMAX=    3
   IXMIN=   -4   IYMIN=   -4   IZMIN=   -4


 serial   3D FFT for wavefunctions
 parallel 3D FFT for charge:
    minimum data exchange during FFTs selected (reduces bandwidth)


 total amount of memory used by VASP MPI-rank0    31390. kBytes
=======================================================================

   base      :      30000. kBytes
   nonl-proj :        971. kBytes
   fftplans  :         34. kBytes
   grid      :        100. kBytes
   one-center:          3. kBytes
   wavefun   :        282. kBytes
 
     INWAV:  cpu time    0.0466: real time    0.0469
 Broyden mixing: mesh for mixing (old mesh)
   NGX =  9   NGY =  7   NGZ =  7
  (NGX  = 24   NGY  = 24   NGZ  = 24)
  gives a total of    441 points

 charge density for first step will be calculated from the start-wavefunctions


--------------------------------------------------------------------------------------------------------


 Maximum index for augmentation-charges          196 (set IRDMAX)


--------------------------------------------------------------------------------------------------------


 initial charge from wavefunction
 First call to EWALD:  gamma=   0.598
 Maximum number of real-space cells 3x 3x 3
 Maximum number of reciprocal cells 3x 3x 3

    FEWALD:  cpu time    0.0013: real time    0.0013


--------------------------------------- Iteration      1(   1)  ---------------------------------------


    POTLOK:  cpu time    0.0035: real time    0.0045
    SETDIJ:  cpu time    0.0014: real time    0.0014
     EDDAV:  cpu time    0.8955: real time    0.9310
       DOS:  cpu time    0.0014: real time    0.0014
    CHARGE:  cpu time    0.0025: real time    0.0025
    MIXING:  cpu time    0.0009: real time    0.0010
    --------------------------------------------
      LOOP:  cpu time    0.9052: real time    0.9418

 eigenvalue-minimisations  :  6280
 total energy-change (2. order) :-0.3303120E+01  (-0.2583668E-03)
 number of electron       2.9999999 magnetization 
 augmentation part       -0.0472562 magnetization 

 Broyden mixing:
  rms(total) = 0.17178E-01    rms(broyden)= 0.17177E-01
  rms(prec ) = 0.17233E-01
  weight for this iteration     100.00

 Free energy of the ion-electron system (eV)
  ---------------------------------------------------
  alpha Z        PSCENC =        -0.12882990
  Ewald energy   TEWEN  =       -62.56495306
  -Hartree energ DENC   =        -0.56183291
  -exchange      EXHF   =         0.00000000
  -V(xc)+E(xc)   XCENC  =       -26.92394903
  PAW double counting   =        90.25524470      -58.28422728
  entropy T*S    EENTRO =         0.00063436
  eigenvalues    EBANDS =         1.36898951
  atomic energy  EATOM  =        53.53580311
  Solvation  Ediel_sol  =         0.00000000
  ---------------------------------------------------
  free energy    TOTEN  =        -3.30312049 eV

  energy without entropy =       -3.30375485  energy(sigma->0) =       -3.30333194


--------------------------------------------------------------------------------------------------------




--------------------------------------- Iteration      1(   2)  ---------------------------------------


    POTLOK:  cpu time    0.0018: real time    0.0020
    SETDIJ:  cpu time    0.0012: real time    0.0012
     EDDAV:  cpu time    0.9524: real time    0.9527
       DOS:  cpu time    0.0008: real time    0.0008
    --------------------------------------------
      LOOP:  cpu time    0.9561: real time    0.9567

 eigenvalue-minimisations  :  6440
 total energy-change (2. order) :-0.2632690E-05  (-0.2011819E-06)
 number of electron       2.9999999 magnetization 
 augmentation part       -0.0472562 magnetization 

 Free energy of the ion-electron system (eV)
  ---------------------------------------------------
  alpha Z        PSCENC =        -0.12882990
  Ewald energy   TEWEN  =       -62.56495306
  -Hartree energ DENC   =        -0.56154415
  -exchange      EXHF   =         0.00000000
  -V(xc)+E(xc)   XCENC  =       -26.92353026
  PAW double counting   =        94.74464467      -62.77362733
  entropy T*S    EENTRO =         0.00063525
  eigenvalues    EBANDS =         1.36827855
  atomic energy  EATOM  =        53.53580311
  Solvation  Ediel_sol  =         0.00000000
  ---------------------------------------------------
  free energy    TOTEN  =        -3.30312312 eV

  energy without entropy =       -3.30375837  energy(sigma->0) =       -3.30333487


--------------------------------------------------------------------------------------------------------




 average (electrostatic) potential at core
  the test charge radii are     1.0406
  (the norm of the test charge is              1.0000)
       1 -77.1618
 
 
 
 E-fermi :   3.7413     XC(G=0):  -8.5954     alpha+bet : -9.4148


 k-point     1 :       0.0000    0.0000    0.0000
  band No.  band energies     occupation 
      1      -4.4621      2.00000
      2      10.2903      0.00000
      3      11.1627      0.00000
      4      12.5583      0.00000
      5      13.7212      0.00000
      6      14.1601      0.00000
      7      15.8305      0.00000
      8      18.0768      0.00000
      9      18.5788      0.00000
     10      23.2712      0.00000
     11      23.6146      0.00000
     12      24.9963      0.00000
     13      27.4046      0.00000
     14      29.0866      0.00000
     15      29.3561      0.00000
     16      32.8094      0.00000
     17      33.0689      0.00000
     18      36.9323      0.00000
     19      37.7522      0.00000
     20      40.3287      0.00000
     21      41.5674      0.00000
     22      47.8253      0.00000
     23      49.7031      0.00000
     24      51.5221      0.00000
     25      51.5714      0.00000
     26      55.7851      0.00000
     27      57.9182      0.00000
     28      58.1528      0.00000
     29      58.6490      0.00000
     30      59.8594      0.00000
     31      60.4064      0.00000
     32      63.1458      0.00000
     33      63.3629      0.00000
     34      63.9783      0.00000
     35      64.4945      0.00000
     36      65.1875      0.00000
     37      65.2893      0.00000
     38      65.9517      0.00000
     39      68.0609      0.00000
     40      69.1730      0.00000

 k-point     2 :       0.2000    0.0000    0.0000
  band No.  band energies     occupation 
      1      -3.6594      2.00000
      2       7.8874     -0.00000
      3      10.3704      0.00000
      4      11.0874      0.00000
      5      12.2253      0.00000
      6      14.4829      0.00000
      7      17.9099      0.00000
      8      18.8972      0.00000
      9      21.1711      0.00000
     10      22.7653      0.00000
     11      24.3312      0.00000
     12      24.8544      0.00000
     13      27.4028      0.00000
     14      29.7993      0.00000
     15      31.6084      0.00000
     16      32.7190      0.00000
     17      34.4256      0.00000
     18      36.5827      0.00000
     19      37.4841      0.00000
     20      40.1297      0.00000
     21      44.7099      0.00000
     22      45.9356      0.00000
     23      48.0506      0.00000
     24      50.0742      0.00000
     25      52.7286      0.00000
     26      53.4848      0.00000
     27      55.1403      0.00000
     28      56.4764      0.00000
     29      58.1812      0.00000
     30      58.2592      0.00000
     31      59.3830      0.00000
     32      61.3051      0.00000
     33      61.5669      0.00000
     34      63.4185      0.00000
     35      63.7074      0.00000
     36      64.2672      0.00000
     37      65.4886      0.00000
     38      65.6743      0.00000
     39      66.5168      0.00000
     40      67.7189      0.00000

 k-point     3 :       0.4000    0.0000    0.0000
  band No.  band energies     occupation 
      1      -1.2935      2.00000
      2       2.7118      2.00000
      3       9.7485      0.00000
      4      10.9688      0.00000
      5      12.0385      0.00000
      6      15.1465      0.00000
      7      17.0102      0.00000
      8      20.5460      0.00000
      9      20.9750      0.00000
     10      22.9791      0.00000
     11      23.4603      0.00000
     12      28.0035      0.00000
     13      29.4514      0.00000
     14      32.0888      0.00000
     15      32.6113      0.00000
     16      34.6985      0.00000
     17      36.1980      0.00000
     18      37.4510      0.00000
     19      38.4122      0.00000
     20      42.5180      0.00000
     21      43.9255      0.00000
     22      44.3166      0.00000
     23      45.5010      0.00000
     24      46.1908      0.00000
     25      49.5129      0.00000
     26      49.9542      0.00000
     27      52.6493      0.00000
     28      55.1828      0.00000
     29      56.7582      0.00000
     30      57.8024      0.00000
     31      57.9670      0.00000
     32      58.6062      0.00000
     33      61.1048      0.00000
     34      61.4456      0.00000
     35      62.4470      0.00000
     36      64.2720      0.00000
     37      64.4620      0.00000
     38      65.8458      0.00000
     39      66.4105      0.00000
     40      66.7935      0.00000

 k-point     4 :      -0.0000    0.2000    0.0000
  band No.  band energies     occupation 
      1      -3.8508      2.00000
      2       5.6177     -0.00000
      3      12.9039      0.00000
      4      13.6392      0.00000
      5      14.6672      0.00000
      6      15.7981      0.00000
      7      16.4282      0.00000
      8      18.7162      0.00000
      9      19.4848      0.00000
     10      20.6640      0.00000
     11      21.4865      0.00000
     12      24.8200      0.00000
     13      26.5423      0.00000
     14      27.9416      0.00000
     15      31.7679      0.00000
     16      32.5291      0.00000
     17      34.0481      0.00000
     18      36.0904      0.00000
     19      40.0107      0.00000
     20      42.7791      0.00000
     21      44.6242      0.00000
     22      47.5340      0.00000
     23      50.0233      0.00000
     24      50.8944      0.00000
     25      51.8395      0.00000
     26      53.1718      0.00000
     27      55.3784      0.00000
     28      56.3558      0.00000
     29      56.4688      0.00000
     30      58.2301      0.00000
     31      59.8666      0.00000
     32      60.4741      0.00000
     33      61.2267      0.00000
     34      63.7286      0.00000
     35      63.9163      0.00000
     36      64.3592      0.00000
     37      65.2832      0.00000
     38      66.5175      0.00000
     39      66.9516      0.00000
     40      68.0887      0.00000

 k-point     5 :       0.2000    0.2000    0.0000
  band No.  band energies     occupation 
      1      -3.2478      2.00000
      2       6.9592     -0.00000
      3       9.4831      0.00000
      4      11.0470      0.00000
      5      14.3552      0.00000
      6      14.9065      0.00000
      7      17.1067      0.00000
      8      18.3080      0.00000
      9      18.6957      0.00000
     10      22.2029      0.00000
     11      23.3317      0.00000
     12      24.8582      0.00000
     13      28.5198      0.00000
     14      30.7489      0.00000
     15      32.3877      0.00000
     16      36.5563      0.00000
     17      37.6135      0.00000
     18      39.4437      0.00000
     19      40.7310      0.00000
     20      41.6815      0.00000
     21      42.4644      0.00000
     22      44.8880      0.00000
     23      45.4524      0.00000
     24      47.9604      0.00000
     25      49.2272      0.00000
     26      51.0581      0.00000
     27      52.7949      0.00000
     28      54.0640      0.00000
     29      55.0338      0.00000
     30      56.6268      0.00000
     31      58.6943      0.00000
     32      60.5810      0.00000
     33      60.9788      0.00000
     34      62.9009      0.00000
     35      63.5894      0.00000
     36      64.5432      0.00000
     37      65.3724      0.00000
     38      65.6971      0.00000
     39      66.5333      0.00000
     40      67.1067      0.00000

 k-point     6 :       0.4000    0.2000   -0.0000
  band No.  band energies     occupation 
      1      -1.0741      2.00000
      2       3.8260      0.34951
      3       9.1793     -0.00000
      4       9.9799      0.00000
      5      11.2462      0.00000
      6      12.9124      0.00000
      7      17.0734      0.00000
      8      18.6824      0.00000
      9      23.2860      0.00000
     10      23.7637      0.00000
     11      26.0025      0.00000
     12      28.9122      0.00000
     13      29.4355      0.00000
     14      32.3700      0.00000
     15      33.7882      0.00000
     16      34.4215      0.00000
     17      37.1334      0.00000
     18      38.6909      0.00000
     19      41.2417      0.00000
     20      42.0508      0.00000
     21      42.4336      0.00000
     22      45.1848      0.00000
     23      45.9003      0.00000
     24      46.8808      0.00000
     25      48.0844      0.00000
     26      50.3552      0.00000
     27      50.9152      0.00000
     28      52.0572      0.00000
     29      52.8284      0.00000
     30      54.3462      0.00000
     31      55.5844      0.00000
     32      56.4908      0.00000
     33      58.0448      0.00000
     34      60.8364      0.00000
     35      62.3518      0.00000
     36      63.5147      0.00000
     37      64.6151      0.00000
     38      66.0187      0.00000
     39      67.8781      0.00000
     40      68.3730      0.00000

 k-point     7 :      -0.4000    0.2000   -0.0000
  band No.  band energies     occupation 
      1      -0.3132      2.00000
      2       2.7118      2.00000
      3       7.1433     -0.00000
      4      10.0364      0.00000
      5      12.0977      0.00000
      6      15.0576      0.00000
      7      17.3676      0.00000
      8      20.5775      0.00000
      9      23.5206      0.00000
     10      23.8330      0.00000
     11      24.9167      0.00000
     12      27.5481      0.00000
     13      29.3152      0.00000
     14      33.0985      0.00000
     15      33.2083      0.00000
     16      34.2309      0.00000
     17      35.4499      0.00000
     18      36.5733      0.00000
     19      39.1064      0.00000
     20      40.7274      0.00000
     21      42.4591      0.00000
     22      44.9085      0.00000
     23      45.7233      0.00000
     24      46.6012      0.00000
     25      48.6162      0.00000
     26      52.2084      0.00000
     27      52.7777      0.00000
     28      53.3002      0.00000
     29      56.6886      0.00000
     30      57.7490      0.00000
     31      59.0154      0.00000
     32      59.9575      0.00000
     33      60.8938      0.00000
     34      61.6386      0.00000
     35      62.6767      0.00000
     36      63.3264      0.00000
     37      64.3733      0.00000
     38      64.6119      0.00000
     39      65.6618      0.00000
     40      66.4893      0.00000

 k-point     8 :      -0.2000    0.2000   -0.0000
  band No.  band energies     occupation 
      1      -2.8536      2.00000
      2       5.5460     -0.00000
      3       7.9300     -0.00000
      4      11.4477      0.00000
      5      13.2860      0.00000
      6      17.8815      0.00000
      7      18.3925      0.00000
      8      19.7265      0.00000
      9      20.6817      0.00000
     10      23.1794      0.00000
     11      25.4099      0.00000
     12      25.6531      0.00000
     13      27.1223      0.00000
     14      28.1124      0.00000
     15      29.7322      0.00000
     16      31.3821      0.00000
     17      32.1014      0.00000
     18      37.6688      0.00000
     19      39.9012      0.00000
     20      40.5003      0.00000
     21      43.1696      0.00000
     22      46.5714      0.00000
     23      49.8383      0.00000
     24      52.3221      0.00000
     25      52.8906      0.00000
     26      54.6967      0.00000
     27      56.2966      0.00000
     28      56.7273      0.00000
     29      56.9934      0.00000
     30      58.3110      0.00000
     31      58.7246      0.00000
     32      59.4276      0.00000
     33      61.9757      0.00000
     34      62.2978      0.00000
     35      62.8726      0.00000
     36      63.7944      0.00000
     37      65.0024      0.00000
     38      65.7257      0.00000
     39      66.0998      0.00000
     40      67.4249      0.00000

 k-point     9 :      -0.0000    0.4000    0.0000
  band No.  band energies     occupation 
      1      -2.1412      2.00000
      2       1.5780      2.00000
      3      13.8994      0.00000
      4      14.2043      0.00000
      5      15.5174      0.00000
      6      16.3299      0.00000
      7      17.7345      0.00000
      8      18.3898      0.00000
      9      19.6587      0.00000
     10      19.8375      0.00000
     11      22.1737      0.00000
     12      23.8600      0.00000
     13      24.4873      0.00000
     14      27.8804      0.00000
     15      28.4052      0.00000
     16      35.3657      0.00000
     17      37.1468      0.00000
     18      38.3521      0.00000
     19      42.8000      0.00000
     20      44.2349      0.00000
     21      46.6143      0.00000
     22      47.4144      0.00000
     23      49.0925      0.00000
     24      49.6239      0.00000
     25      51.2451      0.00000
     26      52.5817      0.00000
     27      53.2842      0.00000
     28      55.3889      0.00000
     29      56.1818      0.00000
     30      57.2066      0.00000
     31      57.5579      0.00000
     32      58.3071      0.00000
     33      59.1962      0.00000
     34      59.7328      0.00000
     35      62.1492      0.00000
     36      63.0892      0.00000
     37      66.2626      0.00000
     38      66.7259      0.00000
     39      67.1067      0.00000
     40      69.0882      0.00000

 k-point    10 :       0.2000    0.4000    0.0000
  band No.  band energies     occupation 
      1      -1.6877      2.00000
      2       2.8631      2.00000
      3      10.3722      0.00000
      4      11.9232      0.00000
      5      13.0585      0.00000
      6      14.6199      0.00000
      7      18.0941      0.00000
      8      19.2045      0.00000
      9      19.9372      0.00000
     10      21.3845      0.00000
     11      24.2342      0.00000
     12      24.4256      0.00000
     13      27.3870      0.00000
     14      31.3991      0.00000
     15      35.1052      0.00000
     16      36.5916      0.00000
     17      37.4112      0.00000
     18      39.5190      0.00000
     19      41.9451      0.00000
     20      42.3335      0.00000
     21      43.6171      0.00000
     22      44.7073      0.00000
     23      45.9542      0.00000
     24      46.6548      0.00000
     25      47.7957      0.00000
     26      50.7482      0.00000
     27      53.2666      0.00000
     28      54.3715      0.00000
     29      55.5685      0.00000
     30      55.9005      0.00000
     31      56.6872      0.00000
     32      57.2507      0.00000
     33      58.6072      0.00000
     34      61.0544      0.00000
     35      62.5547      0.00000
     36      63.7772      0.00000
     37      64.3918      0.00000
     38      66.4224      0.00000
     39      67.5546      0.00000
     40      67.9015      0.00000

 k-point    11 :       0.4000    0.4000    0.0000
  band No.  band energies     occupation 
      1       0.3111      2.00000
      2       5.2599     -0.00000
      3       5.5265     -0.00000
      4       8.0907     -0.00000
      5      10.7424      0.00000
      6      13.1915      0.00000
      7      16.3930      0.00000
      8      19.1628      0.00000
      9      24.0358      0.00000
     10      24.6122      0.00000
     11      28.3999      0.00000
     12      30.9171      0.00000
     13      32.3643      0.00000
     14      33.3634      0.00000
     15      35.1337      0.00000
     16      35.4635      0.00000
     17      35.5658      0.00000
     18      38.2766      0.00000
     19      39.7856      0.00000
     20      41.6224      0.00000
     21      42.9931      0.00000
     22      43.5925      0.00000
     23      44.8740      0.00000
     24      45.3780      0.00000
     25      46.2097      0.00000
     26      47.4055      0.00000
     27      49.6221      0.00000
     28      52.9916      0.00000
     29      53.6293      0.00000
     30      56.2011      0.00000
     31      56.7865      0.00000
     32      57.7039      0.00000
     33      58.0993      0.00000
     34      59.9445      0.00000
     35      60.5236      0.00000
     36      62.0079      0.00000
     37      63.3580      0.00000
     38      64.1481      0.00000
     39      64.3007      0.00000
     40      66.9728      0.00000

 k-point    12 :      -0.4000    0.4000   -0.0000
  band No.  band energies     occupation 
      1       1.5363      2.00000
      2       3.3013      2.00795
      3       4.3105     -0.00043
      4      10.2437      0.00000
      5      10.9198      0.00000
      6      13.1672      0.00000
      7      15.7966      0.00000
      8      20.1280      0.00000
      9      24.1513      0.00000
     10      25.8282      0.00000
     11      29.4177      0.00000
     12      30.0945      0.00000
     13      32.1004      0.00000
     14      33.1416      0.00000
     15      33.4230      0.00000
     16      34.8052      0.00000
     17      35.4893      0.00000
     18      36.1544      0.00000
     19      38.2311      0.00000
     20      40.5944      0.00000
     21      41.4013      0.00000
     22      43.8751      0.00000
     23      44.7990      0.00000
     24      46.7213      0.00000
     25      48.1679      0.00000
     26      49.9615      0.00000
     27      52.2121      0.00000
     28      54.1518      0.00000
     29      55.0455      0.00000
     30      55.8477      0.00000
     31      57.1841      0.00000
     32      57.8735      0.00000
     33      58.7224      0.00000
     34      60.1336      0.00000
     35      62.0320      0.00000
     36      62.6714      0.00000
     37      63.2694      0.00000
     38      65.3442      0.00000
     39      66.3184      0.00000
     40      66.7909      0.00000

 k-point    13 :      -0.2000    0.4000   -0.0000
  band No.  band energies     occupation 
      1      -1.0398      2.00000
      2       1.8388      2.00000
      3       8.8151     -0.00000
      4      12.1807      0.00000
      5      14.3352      0.00000
      6      15.5312      0.00000
      7      17.1582      0.00000
      8      19.1914      0.00000
      9      21.7872      0.00000
     10      22.9196      0.00000
     11      24.5983      0.00000
     12      25.9845      0.00000
     13      27.5800      0.00000
     14      29.9276      0.00000
     15      31.2442      0.00000
     16      33.8438      0.00000
     17      34.6790      0.00000
     18      35.6453      0.00000
     19      40.9625      0.00000
     20      43.6187      0.00000
     21      44.8837      0.00000
     22      46.9510      0.00000
     23      48.3404      0.00000
     24      48.8627      0.00000
     25      49.5654      0.00000
     26      51.4669      0.00000
     27      53.8998      0.00000
     28      55.8744      0.00000
     29      56.2544      0.00000
     30      57.6910      0.00000
     31      58.6677      0.00000
     32      59.4521      0.00000
     33      61.0273      0.00000
     34      61.2632      0.00000
     35      61.8237      0.00000
     36      63.7596      0.00000
     37      64.8103      0.00000
     38      65.3812      0.00000
     39      66.1853      0.00000
     40      66.6601      0.00000

 k-point    14 :       0.0000   -0.0000    0.2000
  band No.  band energies     occupation 
      1      -3.5969      2.00000
      2       8.6114     -0.00000
      3      10.1428      0.00000
      4      10.3631      0.00000
      5      11.8832      0.00000
      6      14.3520      0.00000
      7      17.9654      0.00000
      8      18.3371      0.00000
      9      21.7183      0.00000
     10      22.5342      0.00000
     11      25.1576      0.00000
     12      26.3493      0.00000
     13      28.0404      0.00000
     14      28.5562      0.00000
     15      31.0866      0.00000
     16      32.8699      0.00000
     17      33.5129      0.00000
     18      35.2703      0.00000
     19      38.9034      0.00000
     20      41.7216      0.00000
     21      43.8682      0.00000
     22      45.5929      0.00000
     23      47.4423      0.00000
     24      51.3424      0.00000
     25      51.8962      0.00000
     26      52.7097      0.00000
     27      52.9277      0.00000
     28      55.8716      0.00000
     29      57.8726      0.00000
     30      60.5944      0.00000
     31      60.7271      0.00000
     32      62.2172      0.00000
     33      62.7598      0.00000
     34      63.4312      0.00000
     35      64.7933      0.00000
     36      64.9876      0.00000
     37      66.0212      0.00000
     38      66.7078      0.00000
     39      67.2526      0.00000
     40      68.1318      0.00000

 k-point    15 :       0.2000    0.0000    0.2000
  band No.  band energies     occupation 
      1      -1.8985      2.00000
      2       5.1849     -0.00000
      3       6.5130     -0.00000
      4      10.9617      0.00000
      5      14.7590      0.00000
      6      15.7717      0.00000
      7      17.1677      0.00000
      8      18.3054      0.00000
      9      18.8412      0.00000
     10      23.6556      0.00000
     11      25.8077      0.00000
     12      27.9312      0.00000
     13      30.3621      0.00000
     14      31.1869      0.00000
     15      31.9244      0.00000
     16      34.2531      0.00000
     17      35.7066      0.00000
     18      36.8302      0.00000
     19      38.9786      0.00000
     20      40.7120      0.00000
     21      41.9183      0.00000
     22      43.2263      0.00000
     23      44.7212      0.00000
     24      50.4353      0.00000
     25      52.0513      0.00000
     26      52.7255      0.00000
     27      54.2692      0.00000
     28      55.9686      0.00000
     29      56.2910      0.00000
     30      57.9580      0.00000
     31      58.3778      0.00000
     32      59.0420      0.00000
     33      60.8056      0.00000
     34      61.7854      0.00000
     35      62.4990      0.00000
     36      63.0115      0.00000
     37      63.8430      0.00000
     38      64.6088      0.00000
     39      66.0983      0.00000
     40      66.6982      0.00000

 k-point    16 :       0.4000   -0.0000    0.2000
  band No.  band energies     occupation 
      1       0.5924      2.00000
      2       1.6217      2.00000
      3       5.1808     -0.00000
      4      12.6773      0.00000
      5      14.3969      0.00000
      6      16.3415      0.00000
      7      17.4488      0.00000
      8      18.5660      0.00000
      9      20.6174      0.00000
     10      22.3665      0.00000
     11      24.2745      0.00000
     12      26.4437      0.00000
     13      28.8222      0.00000
     14      32.6547      0.00000
     15      34.7339      0.00000
     16      35.9940      0.00000
     17      37.6260      0.00000
     18      38.5198      0.00000
     19      40.3314      0.00000
     20      41.7924      0.00000
     21      42.7367      0.00000
     22      44.5904      0.00000
     23      46.2172      0.00000
     24      47.2597      0.00000
     25      49.5653      0.00000
     26      50.6275      0.00000
     27      51.5715      0.00000
     28      51.6974      0.00000
     29      52.1472      0.00000
     30      55.2210      0.00000
     31      55.9334      0.00000
     32      57.8826      0.00000
     33      59.4811      0.00000
     34      61.1648      0.00000
     35      62.5039      0.00000
     36      62.9240      0.00000
     37      63.9800      0.00000
     38      65.8177      0.00000
     39      65.9021      0.00000
     40      68.2854      0.00000

 k-point    17 :      -0.4000   -0.0000    0.2000
  band No.  band energies     occupation 
      1      -2.2295      2.00000
      2       5.4311     -0.00000
      3       6.1777     -0.00000
      4      12.0058      0.00000
      5      14.2024      0.00000
      6      16.9849      0.00000
      7      17.6557      0.00000
      8      18.0537      0.00000
      9      20.2228      0.00000
     10      23.4358      0.00000
     11      25.5482      0.00000
     12      26.2736      0.00000
     13      27.7423      0.00000
     14      29.2999      0.00000
     15      30.1170      0.00000
     16      32.4771      0.00000
     17      38.0219      0.00000
     18      40.0588      0.00000
     19      41.7391      0.00000
     20      43.0530      0.00000
     21      44.1110      0.00000
     22      45.5020      0.00000
     23      46.4800      0.00000
     24      47.6276      0.00000
     25      49.6734      0.00000
     26      51.0441      0.00000
     27      51.7369      0.00000
     28      53.5283      0.00000
     29      53.9384      0.00000
     30      54.6658      0.00000
     31      56.6305      0.00000
     32      58.7483      0.00000
     33      61.5008      0.00000
     34      61.8066      0.00000
     35      62.7890      0.00000
     36      63.2848      0.00000
     37      63.8258      0.00000
     38      65.4982      0.00000
     39      66.0820      0.00000
     40      67.2542      0.00000

 k-point    18 :      -0.2000   -0.0000    0.2000
  band No.  band energies     occupation 
      1      -3.7084      2.00000
      2       7.2751     -0.00000
      3      10.7572      0.00000
      4      11.8303      0.00000
      5      12.1078      0.00000
      6      14.6028      0.00000
      7      18.6773      0.00000
      8      19.6314      0.00000
      9      20.5726      0.00000
     10      22.4318      0.00000
     11      23.2946      0.00000
     12      24.1787      0.00000
     13      26.3677      0.00000
     14      29.7949      0.00000
     15      30.5068      0.00000
     16      34.7115      0.00000
     17      35.4867      0.00000
     18      37.0266      0.00000
     19      39.3842      0.00000
     20      41.4452      0.00000
     21      41.7665      0.00000
     22      44.8652      0.00000
     23      46.3610      0.00000
     24      51.0896      0.00000
     25      51.8471      0.00000
     26      52.7887      0.00000
     27      54.5827      0.00000
     28      57.7609      0.00000
     29      58.1448      0.00000
     30      58.8783      0.00000
     31      59.1290      0.00000
     32      61.1740      0.00000
     33      61.8133      0.00000
     34      62.8446      0.00000
     35      63.6360      0.00000
     36      64.5982      0.00000
     37      65.1865      0.00000
     38      66.1472      0.00000
     39      67.1616      0.00000
     40      68.1038      0.00000

 k-point    19 :       0.0000    0.2000    0.2000
  band No.  band energies     occupation 
      1      -3.2701      2.00000
      2       7.3290     -0.00000
      3      10.5172      0.00000
      4      10.9849      0.00000
      5      13.3003      0.00000
      6      14.5634      0.00000
      7      16.6427      0.00000
      8      17.9224      0.00000
      9      18.5523      0.00000
     10      20.6966      0.00000
     11      22.5606      0.00000
     12      25.7318      0.00000
     13      31.1710      0.00000
     14      32.2538      0.00000
     15      34.0831      0.00000
     16      36.3673      0.00000
     17      37.9978      0.00000
     18      39.0621      0.00000
     19      39.8848      0.00000
     20      41.6271      0.00000
     21      43.4001      0.00000
     22      43.9161      0.00000
     23      44.6188      0.00000
     24      47.3266      0.00000
     25      49.0147      0.00000
     26      50.8908      0.00000
     27      52.0707      0.00000
     28      52.8845      0.00000
     29      54.5341      0.00000
     30      55.9916      0.00000
     31      59.8989      0.00000
     32      60.7668      0.00000
     33      60.9379      0.00000
     34      62.3620      0.00000
     35      64.0049      0.00000
     36      64.6975      0.00000
     37      65.0170      0.00000
     38      66.2004      0.00000
     39      67.3154      0.00000
     40      68.9605      0.00000

 k-point    20 :       0.2000    0.2000    0.2000
  band No.  band energies     occupation 
      1      -1.7696      2.00000
      2       6.2194     -0.00000
      3       7.7168     -0.00000
      4       9.9899      0.00000
      5      12.4351      0.00000
      6      14.3028      0.00000
      7      15.8813      0.00000
      8      16.2792      0.00000
      9      18.9612      0.00000
     10      25.7906      0.00000
     11      27.5608      0.00000
     12      30.2645      0.00000
     13      31.1168      0.00000
     14      31.8471      0.00000
     15      33.7405      0.00000
     16      35.2123      0.00000
     17      37.0302      0.00000
     18      38.9423      0.00000
     19      40.6272      0.00000
     20      41.3176      0.00000
     21      43.0677      0.00000
     22      43.6760      0.00000
     23      45.9674      0.00000
     24      46.3799      0.00000
     25      49.3225      0.00000
     26      50.1637      0.00000
     27      51.1004      0.00000
     28      52.4320      0.00000
     29      52.9981      0.00000
     30      53.8595      0.00000
     31      54.6362      0.00000
     32      56.9766      0.00000
     33      58.8492      0.00000
     34      60.5520      0.00000
     35      62.1529      0.00000
     36      63.0670      0.00000
     37      64.6458      0.00000
     38      64.9532      0.00000
     39      66.5978      0.00000
     40      67.9227      0.00000

 k-point    21 :       0.4000    0.2000    0.2000
  band No.  band energies     occupation 
      1       1.0629      2.00000
      2       1.9768      2.00000
      3       6.3304     -0.00000
      4       9.4057      0.00000
      5      12.5819      0.00000
      6      14.3588      0.00000
      7      16.1588      0.00000
      8      19.4447      0.00000
      9      22.4254      0.00000
     10      24.7402      0.00000
     11      28.1370      0.00000
     12      29.2010      0.00000
     13      31.5168      0.00000
     14      32.8902      0.00000
     15      33.1188      0.00000
     16      34.5789      0.00000
     17      34.8244      0.00000
     18      38.7241      0.00000
     19      40.0453      0.00000
     20      41.8689      0.00000
     21      43.1727      0.00000
     22      44.0312      0.00000
     23      45.3307      0.00000
     24      47.3009      0.00000
     25      48.7984      0.00000
     26      50.0935      0.00000
     27      50.5089      0.00000
     28      52.5577      0.00000
     29      53.1473      0.00000
     30      55.1199      0.00000
     31      56.1841      0.00000
     32      56.5650      0.00000
     33      57.4544      0.00000
     34      59.4687      0.00000
     35      60.1144      0.00000
     36      61.2324      0.00000
     37      61.4015      0.00000
     38      63.9440      0.00000
     39      64.7636      0.00000
     40      68.8157      0.00000

 k-point    22 :      -0.4000    0.2000    0.2000
  band No.  band energies     occupation 
      1      -1.5099      2.00000
      2       5.6704     -0.00000
      3       6.4677     -0.00000
      4       7.7326     -0.00000
      5      13.4763      0.00000
      6      17.1313      0.00000
      7      19.1878      0.00000
      8      19.2978      0.00000
      9      21.3840      0.00000
     10      23.2023      0.00000
     11      24.7975      0.00000
     12      28.1489      0.00000
     13      29.3683      0.00000
     14      30.8723      0.00000
     15      31.3291      0.00000
     16      33.5605      0.00000
     17      34.9439      0.00000
     18      36.9954      0.00000
     19      39.8910      0.00000
     20      42.4727      0.00000
     21      43.2429      0.00000
     22      45.3538      0.00000
     23      48.3720      0.00000
     24      49.4092      0.00000
     25      49.8824      0.00000
     26      50.8897      0.00000
     27      51.7941      0.00000
     28      53.1759      0.00000
     29      53.4942      0.00000
     30      54.9345      0.00000
     31      56.2170      0.00000
     32      58.0208      0.00000
     33      58.8829      0.00000
     34      59.2791      0.00000
     35      61.7589      0.00000
     36      63.2363      0.00000
     37      64.9088      0.00000
     38      65.6002      0.00000
     39      66.8673      0.00000
     40      67.9604      0.00000

 k-point    23 :      -0.2000    0.2000    0.2000
  band No.  band energies     occupation 
      1      -3.1822      2.00000
      2       6.4800     -0.00000
      3       8.4659     -0.00000
      4      11.5931      0.00000
      5      14.7615      0.00000
      6      15.7601      0.00000
      7      17.5918      0.00000
      8      18.6008      0.00000
      9      19.1747      0.00000
     10      22.6115      0.00000
     11      23.1928      0.00000
     12      25.5270      0.00000
     13      27.5553      0.00000
     14      30.0222      0.00000
     15      31.3593      0.00000
     16      34.2854      0.00000
     17      36.5227      0.00000
     18      38.1948      0.00000
     19      40.8019      0.00000
     20      42.4439      0.00000
     21      42.4669      0.00000
     22      45.0079      0.00000
     23      47.6298      0.00000
     24      49.3403      0.00000
     25      49.8797      0.00000
     26      52.0523      0.00000
     27      52.6492      0.00000
     28      54.4035      0.00000
     29      56.3536      0.00000
     30      57.6314      0.00000
     31      58.3992      0.00000
     32      59.1501      0.00000
     33      61.5605      0.00000
     34      61.7239      0.00000
     35      62.7747      0.00000
     36      64.0711      0.00000
     37      64.7028      0.00000
     38      65.3077      0.00000
     39      66.4800      0.00000
     40      67.5439      0.00000

 k-point    24 :       0.0000    0.4000    0.2000
  band No.  band energies     occupation 
      1      -1.7808      2.00000
      2       3.1568      2.00029
      3      10.6266      0.00000
      4      12.2011      0.00000
      5      13.7945      0.00000
      6      14.7167      0.00000
      7      16.2355      0.00000
      8      18.3585      0.00000
      9      18.6397      0.00000
     10      20.7602      0.00000
     11      24.6484      0.00000
     12      26.0177      0.00000
     13      27.9457      0.00000
     14      30.4370      0.00000
     15      36.9154      0.00000
     16      37.2645      0.00000
     17      39.5197      0.00000
     18      40.4105      0.00000
     19      41.9188      0.00000
     20      42.7129      0.00000
     21      44.1449      0.00000
     22      45.5891      0.00000
     23      45.9229      0.00000
     24      46.6996      0.00000
     25      47.9855      0.00000
     26      49.8976      0.00000
     27      50.7440      0.00000
     28      51.6765      0.00000
     29      53.7604      0.00000
     30      54.2243      0.00000
     31      55.5456      0.00000
     32      58.4602      0.00000
     33      60.2738      0.00000
     34      61.0691      0.00000
     35      62.2883      0.00000
     36      63.8402      0.00000
     37      64.0006      0.00000
     38      64.8974      0.00000
     39      66.7972      0.00000
     40      68.0062      0.00000

 k-point    25 :       0.2000    0.4000    0.2000
  band No.  band energies     occupation 
      1      -0.4619      2.00000
      2       5.1957     -0.00000
      3       8.0905     -0.00000
      4       8.4857     -0.00000
      5      10.1554      0.00000
      6      12.3269      0.00000
      7      16.8810      0.00000
      8      18.5302      0.00000
      9      22.4007      0.00000
     10      24.1607      0.00000
     11      25.6066      0.00000
     12      29.8031      0.00000
     13      31.3695      0.00000
     14      34.3620      0.00000
     15      36.0898      0.00000
     16      37.5037      0.00000
     17      38.8442      0.00000
     18      41.0143      0.00000
     19      42.0809      0.00000
     20      42.3534      0.00000
     21      43.4395      0.00000
     22      43.8588      0.00000
     23      44.6220      0.00000
     24      46.0255      0.00000
     25      46.3418      0.00000
     26      48.4378      0.00000
     27      49.1020      0.00000
     28      51.0217      0.00000
     29      51.4613      0.00000
     30      53.0127      0.00000
     31      53.1193      0.00000
     32      55.5554      0.00000
     33      57.1436      0.00000
     34      59.4303      0.00000
     35      60.2755      0.00000
     36      61.5527      0.00000
     37      63.2924      0.00000
     38      64.6988      0.00000
     39      65.7454      0.00000
     40      69.3752      0.00000

 k-point    26 :       0.4000    0.4000    0.2000
  band No.  band energies     occupation 
      1       2.3252      2.00000
      2       3.5734      1.99911
      3       5.7171     -0.00000
      4       7.6772     -0.00000
      5       9.4269      0.00000
      6      10.8305      0.00000
      7      16.9790      0.00000
      8      23.0510      0.00000
      9      24.8833      0.00000
     10      25.6191      0.00000
     11      27.5952      0.00000
     12      30.8739      0.00000
     13      32.3753      0.00000
     14      33.3351      0.00000
     15      34.7030      0.00000
     16      36.0476      0.00000
     17      37.3601      0.00000
     18      39.3185      0.00000
     19      40.2402      0.00000
     20      40.8870      0.00000
     21      41.6452      0.00000
     22      41.9717      0.00000
     23      43.5889      0.00000
     24      45.5992      0.00000
     25      47.4793      0.00000
     26      49.2809      0.00000
     27      50.2833      0.00000
     28      51.2313      0.00000
     29      52.3619      0.00000
     30      53.8276      0.00000
     31      54.5528      0.00000
     32      55.1397      0.00000
     33      56.2452      0.00000
     34      59.8709      0.00000
     35      61.2592      0.00000
     36      61.5918      0.00000
     37      63.6244      0.00000
     38      64.7180      0.00000
     39      65.2999      0.00000
     40      67.8357      0.00000

 k-point    27 :      -0.4000    0.4000    0.2000
  band No.  band energies     occupation 
      1       0.2659      2.00000
      2       3.3382      2.01521
      3       6.8477     -0.00000
      4       8.1532     -0.00000
      5      10.6886      0.00000
      6      14.7405      0.00000
      7      17.7821      0.00000
      8      19.6731      0.00000
      9      24.9240      0.00000
     10      25.5012      0.00000
     11      27.5222      0.00000
     12      29.3981      0.00000
     13      31.1617      0.00000
     14      31.7370      0.00000
     15      32.9863      0.00000
     16      33.8011      0.00000
     17      36.3633      0.00000
     18      36.4973      0.00000
     19      38.7715      0.00000
     20      39.3362      0.00000
     21      41.6751      0.00000
     22      42.0028      0.00000
     23      45.0485      0.00000
     24      47.2242      0.00000
     25      48.5752      0.00000
     26      51.2041      0.00000
     27      52.6428      0.00000
     28      53.7875      0.00000
     29      55.2308      0.00000
     30      55.9766      0.00000
     31      57.0320      0.00000
     32      58.8631      0.00000
     33      59.5843      0.00000
     34      60.2653      0.00000
     35      61.7032      0.00000
     36      62.0377      0.00000
     37      63.5083      0.00000
     38      64.9783      0.00000
     39      66.4106      0.00000
     40      67.2074      0.00000

 k-point    28 :      -0.2000    0.4000    0.2000
  band No.  band energies     occupation 
      1      -1.5328      2.00000
      2       2.5050      2.00000
      3       9.8751      0.00000
      4      12.0431      0.00000
      5      12.8763      0.00000
      6      14.6368      0.00000
      7      18.6899      0.00000
      8      19.4563      0.00000
      9      21.3086      0.00000
     10      22.2875      0.00000
     11      23.7907      0.00000
     12      25.1608      0.00000
     13      27.5028      0.00000
     14      30.0927      0.00000
     15      33.0342      0.00000
     16      35.7946      0.00000
     17      36.1342      0.00000
     18      38.8962      0.00000
     19      40.6048      0.00000
     20      42.4224      0.00000
     21      43.4742      0.00000
     22      44.0941      0.00000
     23      46.2468      0.00000
     24      49.0986      0.00000
     25      50.3737      0.00000
     26      51.5961      0.00000
     27      52.0270      0.00000
     28      53.0664      0.00000
     29      54.8206      0.00000
     30      57.4328      0.00000
     31      57.8351      0.00000
     32      58.4839      0.00000
     33      60.5462      0.00000
     34      61.5106      0.00000
     35      62.6230      0.00000
     36      62.7922      0.00000
     37      65.0444      0.00000
     38      65.5882      0.00000
     39      66.6757      0.00000
     40      67.5018      0.00000

 k-point    29 :       0.0000   -0.4000    0.2000
  band No.  band energies     occupation 
      1      -0.8727      2.00000
      2       1.7132      2.00000
      3       9.0619     -0.00000
      4      11.5305      0.00000
      5      13.6667      0.00000
      6      16.6711      0.00000
      7      17.6518      0.00000
      8      19.5641      0.00000
      9      20.7849      0.00000
     10      22.5843      0.00000
     11      24.4338      0.00000
     12      26.0923      0.00000
     13      26.3500      0.00000
     14      30.3912      0.00000
     15      32.1194      0.00000
[...]
     33      58.0039      0.00000
     34      59.6801      0.00000
     35      59.9172      0.00000
     36      61.0159      0.00000
     37      61.8671      0.00000
     38      62.1663      0.00000
     39      63.2320      0.00000
     40      63.9379      0.00000

 k-point    55 :       0.2000   -0.4000    0.4000
  band No.  band energies     occupation 
      1       2.3432      2.00000
      2       4.2176     -0.00387
      3       5.6818     -0.00000
      4       6.6433     -0.00000
      5       9.3827      0.00000
      6      11.6208      0.00000
      7      17.5564      0.00000
      8      21.2348      0.00000
      9      23.6832      0.00000
     10      24.5224      0.00000
     11      28.2019      0.00000
     12      30.8398      0.00000
     13      32.6332      0.00000
     14      33.9746      0.00000
     15      34.5912      0.00000
     16      35.4968      0.00000
     17      38.8040      0.00000
     18      39.3832      0.00000
     19      40.9098      0.00000
     20      43.3259      0.00000
     21      43.5853      0.00000
     22      44.2798      0.00000
     23      45.0054      0.00000
     24      45.7328      0.00000
     25      47.4586      0.00000
     26      48.5553      0.00000
     27      49.2546      0.00000
     28      51.2817      0.00000
     29      51.9230      0.00000
     30      52.8682      0.00000
     31      53.8444      0.00000
     32      55.7070      0.00000
     33      56.6053      0.00000
     34      57.9487      0.00000
     35      58.1025      0.00000
     36      61.4813      0.00000
     37      61.6529      0.00000
     38      62.9021      0.00000
     39      63.7693      0.00000
     40      67.3698      0.00000

 k-point    56 :       0.4000   -0.4000    0.4000
  band No.  band energies     occupation 
      1       2.2176      2.00000
      2       3.1627      2.00034
      3       6.1874     -0.00000
      4       7.8544     -0.00000
      5       8.8411     -0.00000
      6      11.2612      0.00000
      7      17.4250      0.00000
      8      23.3630      0.00000
      9      24.9135      0.00000
     10      27.1959      0.00000
     11      27.7740      0.00000
     12      30.4259      0.00000
     13      31.3006      0.00000
     14      32.1800      0.00000
     15      34.2550      0.00000
     16      35.1209      0.00000
     17      37.3373      0.00000
     18      39.3534      0.00000
     19      39.4878      0.00000
     20      40.4935      0.00000
     21      41.9433      0.00000
     22      42.4791      0.00000
     23      44.3253      0.00000
     24      45.5259      0.00000
     25      46.4914      0.00000
     26      47.5290      0.00000
     27      50.7516      0.00000
     28      51.6424      0.00000
     29      52.3884      0.00000
     30      54.7078      0.00000
     31      55.8834      0.00000
     32      56.3864      0.00000
     33      57.9419      0.00000
     34      58.0145      0.00000
     35      59.7433      0.00000
     36      61.6740      0.00000
     37      64.2465      0.00000
     38      64.6150      0.00000
     39      65.4185      0.00000
     40      68.0826      0.00000

 k-point    57 :      -0.4000   -0.4000    0.4000
  band No.  band energies     occupation 
      1       1.0768      2.00000
      2       3.5741      1.99751
      3       4.5582     -0.00000
      4       9.1680     -0.00000
      5      11.1301      0.00000
      6      13.2543      0.00000
      7      16.9545      0.00000
      8      21.3330      0.00000
      9      23.9782      0.00000
     10      25.7522      0.00000
     11      29.8618      0.00000
     12      30.3316      0.00000
     13      32.5178      0.00000
     14      32.9269      0.00000
     15      34.0770      0.00000
     16      34.5683      0.00000
     17      35.1654      0.00000
     18      35.4212      0.00000
     19      38.1623      0.00000
     20      39.1134      0.00000
     21      40.3743      0.00000
     22      42.5406      0.00000
     23      43.7081      0.00000
     24      45.2138      0.00000
     25      47.5548      0.00000
     26      49.3872      0.00000
     27      51.0349      0.00000
     28      52.7275      0.00000
     29      53.6290      0.00000
     30      55.7095      0.00000
     31      56.3071      0.00000
     32      59.0760      0.00000
     33      60.1333      0.00000
     34      62.7641      0.00000
     35      63.5735      0.00000
     36      64.4211      0.00000
     37      64.8147      0.00000
     38      65.6145      0.00000
     39      66.0509      0.00000
     40      68.8608      0.00000

 k-point    58 :      -0.2000   -0.4000    0.4000
  band No.  band energies     occupation 
      1       0.7626      2.00000
      2       2.9682      2.00000
      3       6.8681     -0.00000
      4       7.3307     -0.00000
      5      11.3661      0.00000
      6      15.5494      0.00000
      7      17.2892      0.00000
      8      19.5701      0.00000
      9      23.8829      0.00000
     10      24.9012      0.00000
     11      25.9943      0.00000
     12      30.4788      0.00000
     13      31.7003      0.00000
     14      32.5491      0.00000
     15      32.9554      0.00000
     16      33.6342      0.00000
     17      35.7214      0.00000
     18      36.0955      0.00000
     19      38.9712      0.00000
     20      42.3210      0.00000
     21      43.9248      0.00000
     22      44.0988      0.00000
     23      45.6784      0.00000
     24      47.5929      0.00000
     25      47.8258      0.00000
     26      50.1587      0.00000
     27      50.6314      0.00000
     28      53.5759      0.00000
     29      55.2252      0.00000
     30      56.0162      0.00000
     31      57.1657      0.00000
     32      58.5238      0.00000
     33      58.7185      0.00000
     34      60.3882      0.00000
     35      60.7941      0.00000
     36      61.7870      0.00000
     37      62.6770      0.00000
     38      63.7599      0.00000
     39      65.0961      0.00000
     40      66.3485      0.00000

 k-point    59 :       0.0000   -0.2000    0.4000
  band No.  band energies     occupation 
      1       0.1056      2.00000
      2       2.9415      2.00000
      3       6.7478     -0.00000
      4       9.1462     -0.00000
      5      11.0020      0.00000
      6      16.1938      0.00000
      7      18.6583      0.00000
      8      20.1803      0.00000
      9      22.2247      0.00000
     10      24.3797      0.00000
     11      24.7876      0.00000
     12      29.1482      0.00000
     13      29.9344      0.00000
     14      32.2636      0.00000
     15      32.4509      0.00000
     16      33.0238      0.00000
     17      33.7747      0.00000
     18      37.1998      0.00000
     19      38.3047      0.00000
     20      42.0736      0.00000
     21      43.6838      0.00000
     22      46.8894      0.00000
     23      47.1991      0.00000
     24      47.7953      0.00000
     25      50.1403      0.00000
     26      51.7424      0.00000
     27      53.8635      0.00000
     28      55.3293      0.00000
     29      55.6322      0.00000
     30      57.6554      0.00000
     31      58.3641      0.00000
     32      58.8951      0.00000
     33      59.3730      0.00000
     34      59.8257      0.00000
     35      61.2359      0.00000
     36      61.7390      0.00000
     37      62.9941      0.00000
     38      63.8169      0.00000
     39      65.2974      0.00000
     40      66.4097      0.00000

 k-point    60 :       0.2000   -0.2000    0.4000
  band No.  band energies     occupation 
      1       1.1921      2.00000
      2       2.8622      2.00000
      3       4.8814     -0.00000
      4       8.5226     -0.00000
      5      13.5685      0.00000
      6      15.8231      0.00000
      7      16.1597      0.00000
      8      19.4714      0.00000
      9      23.4935      0.00000
     10      23.8178      0.00000
     11      25.4384      0.00000
     12      27.8285      0.00000
     13      29.0098      0.00000
     14      31.4495      0.00000
     15      33.8825      0.00000
     16      37.4291      0.00000
     17      38.4019      0.00000
     18      40.2780      0.00000
     19      41.7274      0.00000
     20      42.5062      0.00000
     21      43.0907      0.00000
     22      43.8169      0.00000
     23      44.9189      0.00000
     24      47.1963      0.00000
     25      47.9399      0.00000
     26      49.2606      0.00000
     27      50.0585      0.00000
     28      53.0438      0.00000
     29      53.8154      0.00000
     30      55.3228      0.00000
     31      56.0140      0.00000
     32      56.2386      0.00000
     33      58.9237      0.00000
     34      59.9928      0.00000
     35      62.2952      0.00000
     36      62.6497      0.00000
     37      63.2011      0.00000
     38      63.6851      0.00000
     39      64.5761      0.00000
     40      65.7071      0.00000

 k-point    61 :       0.4000   -0.2000    0.4000
  band No.  band energies     occupation 
      1       0.6963      2.00000
      2       1.7848      2.00000
      3       6.9814     -0.00000
      4      10.2238      0.00000
      5      12.4733      0.00000
      6      13.3990      0.00000
      7      16.8109      0.00000
      8      20.1207      0.00000
      9      22.6318      0.00000
     10      23.4643      0.00000
     11      27.8879      0.00000
     12      29.5383      0.00000
     13      30.5068      0.00000
     14      32.2057      0.00000
     15      33.3945      0.00000
     16      34.2254      0.00000
     17      35.1891      0.00000
     18      38.3998      0.00000
     19      39.4723      0.00000
     20      39.8019      0.00000
     21      44.3750      0.00000
     22      45.1467      0.00000
     23      47.9960      0.00000
     24      48.9924      0.00000
     25      50.0505      0.00000
     26      50.7724      0.00000
     27      52.0879      0.00000
     28      52.3415      0.00000
     29      53.7581      0.00000
     30      54.7158      0.00000
     31      55.0258      0.00000
     32      56.3072      0.00000
     33      57.2202      0.00000
     34      57.4144      0.00000
     35      58.3789      0.00000
     36      59.3662      0.00000
     37      62.5683      0.00000
     38      63.7043      0.00000
     39      65.0769      0.00000
     40      66.1833      0.00000

 k-point    62 :      -0.4000   -0.2000    0.4000
  band No.  band energies     occupation 
      1      -0.7361      2.00000
      2       2.6935      2.00000
      3       7.7931     -0.00000
      4      10.5936      0.00000
      5      12.7452      0.00000
      6      13.8642      0.00000
      7      17.0251      0.00000
      8      20.7470      0.00000
      9      23.5610      0.00000
     10      23.8058      0.00000
     11      25.5310      0.00000
     12      27.2959      0.00000
     13      29.5808      0.00000
     14      32.5040      0.00000
     15      33.0831      0.00000
     16      33.7448      0.00000
     17      35.7510      0.00000
     18      37.3615      0.00000
     19      39.8072      0.00000
     20      41.4240      0.00000
     21      41.9312      0.00000
     22      43.3253      0.00000
     23      44.1162      0.00000
     24      46.8537      0.00000
     25      48.0521      0.00000
     26      51.1320      0.00000
     27      51.9414      0.00000
     28      55.3401      0.00000
     29      56.5861      0.00000
     30      57.0984      0.00000
     31      57.8305      0.00000
     32      58.2291      0.00000
     33      59.6480      0.00000
     34      61.7529      0.00000
     35      62.0799      0.00000
     36      63.6768      0.00000
     37      64.8158      0.00000
     38      65.1594      0.00000
     39      65.6626      0.00000
     40      66.9770      0.00000

 k-point    63 :      -0.2000   -0.2000    0.4000
  band No.  band energies     occupation 
      1      -1.0816      2.00000
      2       5.2226     -0.00000
      3       6.3067     -0.00000
      4       6.8987     -0.00000
      5      15.0874      0.00000
      6      16.2866      0.00000
      7      19.1322      0.00000
      8      19.9073      0.00000
      9      22.1643      0.00000
     10      23.4367      0.00000
     11      24.5489      0.00000
     12      26.6543      0.00000
     13      29.3947      0.00000
     14      30.7503      0.00000
     15      32.1651      0.00000
     16      33.3212      0.00000
     17      34.6842      0.00000
     18      37.0971      0.00000
     19      38.3240      0.00000
     20      41.4959      0.00000
     21      44.2581      0.00000
     22      46.2791      0.00000
     23      46.7031      0.00000
     24      48.6674      0.00000
     25      49.8630      0.00000
     26      50.9353      0.00000
     27      53.0401      0.00000
     28      54.6856      0.00000
     29      55.2926      0.00000
     30      56.0621      0.00000
     31      57.9582      0.00000
     32      58.3523      0.00000
     33      60.5445      0.00000
     34      61.3635      0.00000
     35      62.9766      0.00000
     36      63.9562      0.00000
     37      64.9348      0.00000
     38      65.5039      0.00000
     39      66.7034      0.00000
     40      66.9121      0.00000


--------------------------------------------------------------------------------------------------------


 soft charge-density along one line, spin component           1
         0         1         2         3         4         5         6         7         8         9
 total charge-density along one line
 
 pseudopotential strength for first ion, spin component:           1
  8.584  14.638   0.000   0.000   0.000   0.000   0.000   0.000
 14.638  24.961   0.000   0.000   0.000   0.000   0.000   0.000
  0.000   0.000   1.975  -0.000  -0.000   5.727  -0.001  -0.000
  0.000   0.000  -0.000   1.975  -0.000  -0.001   5.727  -0.000
  0.000   0.000  -0.000  -0.000   1.975  -0.000  -0.000   5.728
  0.000   0.000   5.727  -0.001  -0.000  16.502  -0.002  -0.001
  0.000   0.000  -0.001   5.727  -0.000  -0.002  16.503  -0.001
  0.000   0.000  -0.000  -0.000   5.728  -0.001  -0.001  16.504
 total augmentation occupancy for first ion, spin component:           1
  2.799  -0.492   0.000   0.000   0.000   0.000   0.000   0.000
 -0.492   0.138   0.000   0.000   0.000   0.000   0.000   0.000
  0.000   0.000   0.779   0.091   0.044  -0.050  -0.006  -0.004
  0.000   0.000   0.091   0.793   0.025  -0.006  -0.055  -0.003
  0.000   0.000   0.044   0.025   0.768  -0.004  -0.003  -0.053
  0.000   0.000  -0.050  -0.006  -0.004   0.003   0.000   0.000
  0.000   0.000  -0.006  -0.055  -0.003   0.000   0.004   0.000
  0.000   0.000  -0.004  -0.003  -0.053   0.000   0.000   0.004


------------------------ aborting loop because EDIFF is reached ----------------------------------------


    CHARGE:  cpu time    0.0018: real time    0.0018
    FORLOC:  cpu time    0.0001: real time    0.0001
    FORNL :  cpu time    0.0023: real time    0.0023
    STRESS:  cpu time    0.0311: real time    0.0311
    FORCOR:  cpu time    0.0014: real time    0.0014
    FORHAR:  cpu time    0.0005: real time    0.0005
    MIXING:  cpu time    0.0004: real time    0.0004
    OFIELD:  cpu time    0.0001: real time    0.0002

  FORCE on cell =-STRESS in cart. coord.  units (eV):
  Direction    XX          YY          ZZ          XY          YZ          ZX
  --------------------------------------------------------------------------------------
  Alpha Z    -0.12883    -0.12883    -0.12883
  Ewald     -20.10613   -23.03660   -19.42218     0.73332     0.91410     0.67678
  Hartree     0.31253    -0.10123     0.34973     0.05084     0.03573     0.05096
  E(xc)      -7.67974    -7.69708    -7.69119    -0.01168    -0.02599    -0.00764
  Local      -3.15245    -0.34680    -3.97698    -0.91362    -1.30433    -0.77223
  n-local    18.49932    18.58604    18.67229     0.19165     0.38910     0.12060
  augment    -1.25796    -1.27026    -1.26382    -0.01252    -0.02771    -0.00592
  Kinetic    11.70674    12.12260    11.61887    -0.04919     0.01387    -0.03111
  Fock        0.00000     0.00000     0.00000     0.00000     0.00000     0.00000
  -------------------------------------------------------------------------------------
  Total      -1.80651    -1.87215    -1.84210    -0.01120    -0.00524     0.03146
  in kB    -111.01543  -115.04920  -113.20243    -0.68806    -0.32177     1.93316
  external pressure =     -113.09 kB  Pullay stress =        0.00 kB


 VOLUME and BASIS-vectors are now :
 -----------------------------------------------------------------------------
  energy-cutoff  :      240.30
  volume of cell :       26.07
      direct lattice vectors                 reciprocal lattice vectors
     3.053090157  0.269922644 -1.012016981     0.358863179 -0.015989716  0.090241227
     0.023533724  3.074168264  0.451120764    -0.032449469  0.327102602 -0.010650766
    -0.765146990  0.023305146  3.046896996     0.123999683 -0.053741443  0.359753033

  length of vectors
     3.227754035  3.107181085  3.141587871     0.370380793  0.328880707  0.384299764


 FORCES acting on ions
    electron-ion (+dipol)            ewald-force                    non-local-force                 convergence-correction
 -----------------------------------------------------------------------------------------------
   0.436E-03 0.308E-03 -.615E-04   -.295E-16 0.567E-16 0.147E-15   0.102E-19 -.159E-20 0.000E+00   0.361E-09 -.438E-09 0.649E-10
 -----------------------------------------------------------------------------------------------
   0.436E-03 0.308E-03 -.615E-04   -.295E-16 0.567E-16 0.147E-15   0.102E-19 -.159E-20 0.000E+00   0.361E-09 -.438E-09 0.649E-10
 
 
 POSITION                                       TOTAL-FORCE (eV/Angst)
 -----------------------------------------------------------------------------------
      2.11552      1.55832      2.09944         0.000000     -0.000000      0.000000
 -----------------------------------------------------------------------------------
    total drift:                                0.000436      0.000308     -0.000061


--------------------------------------------------------------------------------------------------------



  FREE ENERGIE OF THE ION-ELECTRON SYSTEM (eV)
  ---------------------------------------------------
  free  energy   TOTEN  =        -3.30312312 eV

  energy  without entropy=       -3.30375837  energy(sigma->0) =       -3.30333487
 


--------------------------------------------------------------------------------------------------------


    POTLOK:  cpu time    0.0027: real time    0.0028


--------------------------------------------------------------------------------------------------------


 writing wavefunctions
     LOOP+:  cpu time    1.9676: real time    2.0119
    4ORBIT:  cpu time    0.0000: real time    0.0000

 total amount of memory used by VASP MPI-rank0    31390. kBytes
=======================================================================

   base      :      30000. kBytes
   nonl-proj :        971. kBytes
   fftplans  :         34. kBytes
   grid      :        100. kBytes
   one-center:          3. kBytes
   wavefun   :        282. kBytes
 
  
  
 General timing and accounting informations for this job:
 ========================================================
  
                  Total CPU time used (sec):        2.549
                            User time (sec):        2.372
                          System time (sec):        0.177
                         Elapsed time (sec):        3.317
  
                   Maximum memory used (kb):      122668.
                   Average memory used (kb):           0.
  
                          Minor page faults:        12625
                          Major page faults:         2069
                 Voluntary context switches:         3556
