 vasp.5.4.4.18Apr17-6-g9f103f2a35 (build Feb 19 2020 16:12:31) complex          
  
 executed on             LinuxIFC date 2024.06.07  02:12:26
 running on   40 total cores
 distrk:  each k-point on   20 cores,    2 groups
 distr:  one band on NCORES_PER_BAND=   4 cores,    5 groups


--------------------------------------------------------------------------------------------------------


 INCAR:
 POTCAR:    PAW_PBE Al 04Jan2001                  

 ----------------------------------------------------------------------------- 
|                                                                             |
|           W    W    AA    RRRRR   N    N  II  N    N   GGGG   !!!           |
|           W    W   A  A   R    R  NN   N  II  NN   N  G    G  !!!           |
|           W    W  A    A  R    R  N N  N  II  N N  N  G       !!!           |
|           W WW W  AAAAAA  RRRRR   N  N N  II  N  N N  G  GGG   !            |
|           WW  WW  A    A  R   R   N   NN  II  N   NN  G    G                |
|           W    W  A    A  R    R  N    N  II  N    N   GGGG   !!!           |
|                                                                             |
|      You have enabled k-point parallelism (KPAR>1).                         |
|      This developmental code was originally  written by Paul Kent at ORNL,  |
|      and carefully double checked in Vienna.                                |
|      GW as well as linear response parallelism added by Martijn Marsman     |
|      and Georg Kresse.                                                      |
|      Carefully verify results versus KPAR=1.                                |
|      Report problems to Paul Kent and Vienna.                               |
|                                                                             |
 ----------------------------------------------------------------------------- 

 POTCAR:    PAW_PBE Al 04Jan2001                  
   VRHFIN =Al: s2p1                                                             
   LEXCH  = PE                                                                  
   EATOM  =    53.5387 eV,    3.9350 Ry                                         
                                                                                
   TITEL  = PAW_PBE Al 04Jan2001                                                
   LULTRA =        F    use ultrasoft PP ?                                      
   IUNSCR =        1    unscreen: 0-lin 1-nonlin 2-no                           
   RPACOR =    1.500    partial core radius                                     
   POMASS =   26.981; ZVAL   =    3.000    mass and valenz                      
   RCORE  =    1.900    outmost cutoff radius                                   
   RWIGS  =    2.650; RWIGS  =    1.402    wigner-seitz radius (au A)           
   ENMAX  =  240.300; ENMIN  =  180.225 eV                                      
   ICORE  =        2    local potential                                         
   LCOR   =        T    correct aug charges                                     
   LPAW   =        T    paw PP                                                  
   EAUG   =  291.052                                                            
   DEXC   =    0.000                                                            
   RMAX   =    1.939    core radius for proj-oper                               
   RAUG   =    1.300    factor for augmentation sphere                          
   RDEP   =    1.966    radius for radial grids                                 
   RDEPT  =    1.856    core radius for aug-charge                              
                                                                                
   Atomic configuration                                                         
    6 entries                                                                   
     n  l   j            E        occ.                                          
     1  0  0.50     -1511.1048   2.0000                                         
     2  0  0.50      -108.1629   2.0000                                         
     2  1  1.50       -69.6402   6.0000                                         
     3  0  0.50        -7.7528   2.0000                                         
     3  1  1.50        -2.7121   1.0000                                         
     3  2  2.50        -2.7212   0.0000                                         
   Description                                                                  
     l       E           TYP  RCUT    TYP  RCUT                                 
     0     -7.7528455     23  1.900                                             
     0     -3.3096929     23  1.900                                             
     1     -2.7120682     23  1.900                                             
     1     13.6058260     23  1.900                                             
     2     -2.7211652      7  1.900                                             
  local pseudopotential read in
  partial core-charges read in
  partial kinetic energy density read in
  atomic valenz-charges read in
  non local Contribution for L=           0  read in
    real space projection operators read in
  non local Contribution for L=           0  read in
    real space projection operators read in
  non local Contribution for L=           1  read in
    real space projection operators read in
  non local Contribution for L=           1  read in
    real space projection operators read in
    PAW grid and wavefunctions read in
 
   number of l-projection  operators is LMAX  =           4
   number of lm-projection operators is LMMAX =           8
 
  PAW_PBE Al 04Jan2001                  :
 energy of atom  1       EATOM=  -53.5387
 kinetic energy error for atom=    0.0005 (will be added to EATOM!!)
 
 
 POSCAR: Al1                                     
  positions in direct lattice
  velocities in cartesian coordinates
 exchange correlation table for  LEXCH =        8
   RHO(1)=    0.500       N(1)  =     2000
   RHO(2)=  100.500       N(2)  =     4000
 


--------------------------------------------------------------------------------------------------------


 ion  position               nearest neighbor table
   1  0.924  0.419  0.934-
 
  LATTYP: Found a triclinic cell.
 ALAT       =     4.1034640880
 B/A-ratio  =     0.7549784352
 C/A-ratio  =     0.7747079127
 COS(alpha) =     0.0238923113
 COS(beta)  =     0.4883558088
 COS(gamma) =     0.5989385694
  
  Lattice vectors:
  
 A1 = (   0.8438725646,   2.9681497150,  -2.7048814920)
 A2 = (   0.0210590353,   3.0506675405,   0.5392167672)
 A3 = (   2.9527070117,   0.2598216117,  -1.1488980144)


Analysis of symmetry for initial positions (statically):
=====================================================================
 Subroutine PRICEL returns:
 Original cell was already a primitive cell.
 

 Routine SETGRP: Setting up the symmetry group for a 
 triclinic supercell.


 Subroutine GETGRP returns: Found  2 space group operations
 (whereof  1 operations were pure point group operations)
 out of a pool of  2 trial point group operations.


The static configuration has the point symmetry C_1 .
 The point group associated with its full space group is S_2 .


Analysis of symmetry for dynamics (positions and initial velocities):
=====================================================================
 Subroutine PRICEL returns:
 Original cell was already a primitive cell.
 

 Routine SETGRP: Setting up the symmetry group for a 
 triclinic supercell.


 Subroutine GETGRP returns: Found  2 space group operations
 (whereof  1 operations were pure point group operations)
 out of a pool of  2 trial point group operations.


The dynamic configuration has the point symmetry C_1 .
 The point group associated with its full space group is S_2 .


 Subroutine INISYM returns: Found  2 space group operations
 (whereof  1 operations are pure point group operations),
 and found     1 'primitive' translations

 
 

Automatic generation of k-mesh.
 generate k-points for:    5    5    5
Space group operators:
 irot       det(A)        alpha          n_x          n_y          n_z        tau_x        tau_y        tau_z
    1     1.000000     0.000000     1.000000     0.000000     0.000000     0.000000     0.000000     0.000000
    2    -1.000000     0.000000     1.000000     0.000000     0.000000     0.847440     0.837447    -0.132285
 
 Subroutine IBZKPT returns following result:
 ===========================================
 
 Found     63 irreducible k-points:
 
 Following reciprocal coordinates:
            Coordinates               Weight
  0.000000  0.000000  0.000000      1.000000
  0.200000  0.000000 -0.000000      2.000000
  0.400000  0.000000 -0.000000      2.000000
 -0.000000  0.200000 -0.000000      2.000000
  0.200000  0.200000  0.000000      2.000000
  0.400000  0.200000  0.000000      2.000000
 -0.400000  0.200000  0.000000      2.000000
 -0.200000  0.200000  0.000000      2.000000
 -0.000000  0.400000 -0.000000      2.000000
  0.200000  0.400000 -0.000000      2.000000
  0.400000  0.400000  0.000000      2.000000
 -0.400000  0.400000  0.000000      2.000000
 -0.200000  0.400000 -0.000000      2.000000
 -0.000000  0.000000  0.200000      2.000000
  0.200000 -0.000000  0.200000      2.000000
  0.400000  0.000000  0.200000      2.000000
 -0.400000  0.000000  0.200000      2.000000
 -0.200000  0.000000  0.200000      2.000000
  0.000000  0.200000  0.200000      2.000000
  0.200000  0.200000  0.200000      2.000000
  0.400000  0.200000  0.200000      2.000000
 -0.400000  0.200000  0.200000      2.000000
 -0.200000  0.200000  0.200000      2.000000
  0.000000  0.400000  0.200000      2.000000
  0.200000  0.400000  0.200000      2.000000
  0.400000  0.400000  0.200000      2.000000
 -0.400000  0.400000  0.200000      2.000000
 -0.200000  0.400000  0.200000      2.000000
  0.000000 -0.400000  0.200000      2.000000
  0.200000 -0.400000  0.200000      2.000000
  0.400000 -0.400000  0.200000      2.000000
 -0.400000 -0.400000  0.200000      2.000000
 -0.200000 -0.400000  0.200000      2.000000
  0.000000 -0.200000  0.200000      2.000000
  0.200000 -0.200000  0.200000      2.000000
  0.400000 -0.200000  0.200000      2.000000
 -0.400000 -0.200000  0.200000      2.000000
 -0.200000 -0.200000  0.200000      2.000000
 -0.000000  0.000000  0.400000      2.000000
  0.200000  0.000000  0.400000      2.000000
  0.400000 -0.000000  0.400000      2.000000
 -0.400000  0.000000  0.400000      2.000000
 -0.200000  0.000000  0.400000      2.000000
  0.000000  0.200000  0.400000      2.000000
  0.200000  0.200000  0.400000      2.000000
  0.400000  0.200000  0.400000      2.000000
 -0.400000  0.200000  0.400000      2.000000
 -0.200000  0.200000  0.400000      2.000000
  0.000000  0.400000  0.400000      2.000000
  0.200000  0.400000  0.400000      2.000000
  0.400000  0.400000  0.400000      2.000000
 -0.400000  0.400000  0.400000      2.000000
 -0.200000  0.400000  0.400000      2.000000
  0.000000 -0.400000  0.400000      2.000000
  0.200000 -0.400000  0.400000      2.000000
  0.400000 -0.400000  0.400000      2.000000
 -0.400000 -0.400000  0.400000      2.000000
 -0.200000 -0.400000  0.400000      2.000000
  0.000000 -0.200000  0.400000      2.000000
  0.200000 -0.200000  0.400000      2.000000
  0.400000 -0.200000  0.400000      2.000000
 -0.400000 -0.200000  0.400000      2.000000
 -0.200000 -0.200000  0.400000      2.000000
 
 Following cartesian coordinates:
            Coordinates               Weight
  0.000000  0.000000  0.000000      1.000000
  0.075578 -0.003928  0.019269      2.000000
  0.151155 -0.007855  0.038538      2.000000
 -0.007193  0.066229 -0.003509      2.000000
  0.068384  0.062302  0.015760      2.000000
  0.143962  0.058374  0.035029      2.000000
 -0.158348  0.074084 -0.042047      2.000000
 -0.082771  0.070157 -0.022778      2.000000
 -0.014386  0.132459 -0.007018      2.000000
  0.061191  0.128531  0.012251      2.000000
  0.136769  0.124603  0.031520      2.000000
 -0.165542  0.140314 -0.045556      2.000000
 -0.089964  0.136386 -0.026287      2.000000
  0.027961 -0.012399  0.069058      2.000000
  0.103539 -0.016327  0.088327      2.000000
  0.179117 -0.020254  0.107596      2.000000
 -0.123194 -0.004544  0.030520      2.000000
 -0.047616 -0.008472  0.049789      2.000000
  0.020768  0.053830  0.065549      2.000000
  0.096346  0.049903  0.084818      2.000000
  0.171923  0.045975  0.104087      2.000000
 -0.130387  0.061685  0.027011      2.000000
 -0.054809  0.057758  0.046280      2.000000
  0.013575  0.120059  0.062040      2.000000
  0.089153  0.116132  0.081309      2.000000
  0.164730  0.112204  0.100578      2.000000
 -0.137580  0.127915  0.023502      2.000000
 -0.062003  0.123987  0.042771      2.000000
  0.042348 -0.144858  0.076076      2.000000
  0.117925 -0.148785  0.095345      2.000000
  0.193503 -0.152713  0.114614      2.000000
 -0.108807 -0.137003  0.037538      2.000000
 -0.033230 -0.140930  0.056807      2.000000
  0.035155 -0.078629  0.072567      2.000000
  0.110732 -0.082556  0.091836      2.000000
  0.186310 -0.086484  0.111105      2.000000
 -0.116001 -0.070773  0.034029      2.000000
 -0.040423 -0.074701  0.053298      2.000000
  0.055923 -0.024798  0.138116      2.000000
  0.131500 -0.028726  0.157385      2.000000
  0.207078 -0.032654  0.176653      2.000000
 -0.095232 -0.016943  0.099578      2.000000
 -0.019655 -0.020871  0.118847      2.000000
  0.048730  0.041431  0.134606      2.000000
  0.124307  0.037503  0.153875      2.000000
  0.199885  0.033576  0.173144      2.000000
 -0.102426  0.049286  0.096069      2.000000
 -0.026848  0.045358  0.115338      2.000000
  0.041537  0.107660  0.131097      2.000000
  0.117114  0.103733  0.150366      2.000000
  0.192692  0.099805  0.169635      2.000000
 -0.109619  0.115515  0.092560      2.000000
 -0.034041  0.111588  0.111828      2.000000
  0.070309 -0.157257  0.145134      2.000000
  0.145887 -0.161185  0.164403      2.000000
  0.221464 -0.165112  0.183672      2.000000
 -0.080846 -0.149402  0.106596      2.000000
 -0.005268 -0.153330  0.125865      2.000000
  0.063116 -0.091028  0.141625      2.000000
  0.138694 -0.094955  0.160894      2.000000
  0.214271 -0.098883  0.180163      2.000000
 -0.088039 -0.083173  0.103087      2.000000
 -0.012462 -0.087100  0.122356      2.000000
 


--------------------------------------------------------------------------------------------------------




 Dimension of arrays:
   k-points           NKPTS =     63   k-points in BZ     NKDIM =     63   number of bands    NBANDS=      5
   number of dos      NEDOS =    301   number of ions     NIONS =      1
   non local maximal  LDIM  =      4   non local SUM 2l+1 LMDIM =      8
   total plane-waves  NPLWV =  11520
   max r-space proj   IRMAX =      1   max aug-charges    IRDMAX=  17394
   dimension x,y,z NGX =    24 NGY =   20 NGZ =   24
   dimension x,y,z NGXF=    48 NGYF=   40 NGZF=   48
   support grid    NGXF=    48 NGYF=   40 NGZF=   48
   ions per type =               1
   NGX,Y,Z   is equivalent  to a cutoff of  12.55, 10.73, 11.92 a.u.
   NGXF,Y,Z  is equivalent  to a cutoff of  25.10, 21.46, 23.84 a.u.

 SYSTEM =  Isif_5_isif_7_pyxtal_struct_0           
 POSCAR =  Al1                                     

 Startparameter for this run:
   NWRITE =      2    write-flag & timer
   PREC   = accura    normal or accurate (medium, high low for compatibility)
   ISTART =      0    job   : 0-new  1-cont  2-samecut
   ICHARG =      2    charge: 1-file 2-atom 10-const
   ISPIN  =      1    spin polarized calculation?
   LNONCOLLINEAR =      F non collinear calculations
   LSORBIT =      F    spin-orbit coupling
   INIWAV =      1    electr: 0-lowe 1-rand  2-diag
   LASPH  =      F    aspherical Exc in radial PAW
   METAGGA=      F    non-selfconsistent MetaGGA calc.

 Electronic Relaxation 1
   ENCUT  =  400.0 eV  29.40 Ry    5.42 a.u.   5.18  5.05  5.46*2*pi/ulx,y,z
   ENINI  =  400.0     initial cutoff
   ENAUG  =  291.1 eV  augmentation charge cutoff
   NELM   =    240;   NELMIN=  2; NELMDL=-12     # of ELM steps 
   EDIFF  = 0.1E-04   stopping-criterion for ELM
   LREAL  =      F    real-space projection
   NLSPLINE    = F    spline interpolate recip. space projectors
   LCOMPAT=      F    compatible to vasp.4.4
   GGA_COMPAT  = T    GGA compatible to vasp.4.4-vasp.4.6
   LMAXPAW     = -100 max onsite density
   LMAXMIX     =    2 max onsite mixed and CHGCAR
   VOSKOWN=      0    Vosko Wilk Nusair interpolation
   ROPT   =    0.00000
 Ionic relaxation
   EDIFFG = 0.1E-03   stopping-criterion for IOM
   NSW    =    200    number of steps for IOM
   NBLOCK =      1;   KBLOCK =    200    inner block; outer block 
   IBRION =      2    ionic relax: 0-MD 1-quasi-New 2-CG
   NFREE  =      1    steps in history (QN), initial steepest desc. (CG)
   ISIF   =      5    stress and relaxation
   IWAVPR =     11    prediction:  0-non 1-charg 2-wave 3-comb
   ISYM   =      2    0-nonsym 1-usesym 2-fastsym
   LCORR  =      T    Harris-Foulkes like correction to forces

   POTIM  = 0.5000    time-step for ionic-motion
   TEIN   =    0.0    initial temperature
   TEBEG  =    0.0;   TEEND  =   0.0 temperature during run
   SMASS  =  -3.00    Nose mass-parameter (am)
   estimated Nose-frequenzy (Omega)   =  0.10E-29 period in steps =****** mass=  -0.231E-27a.u.
   SCALEE = 1.0000    scale energy and forces
   NPACO  =    256;   APACO  = 16.0  distance and # of slots for P.C.
   PSTRESS=    0.0 pullay stress

  Mass of Ions in am
   POMASS =  26.98
  Ionic Valenz
   ZVAL   =   3.00
  Atomic Wigner-Seitz radii
   RWIGS  =  -1.00
  virtual crystal weights 
   VCA    =   1.00
   NELECT =       3.0000    total number of electrons
   NUPDOWN=      -1.0000    fix difference up-down

 DOS related values:
   EMIN   =  10.00;   EMAX   =-10.00  energy-range for DOS
   EFERMI =   0.00
   ISMEAR =     1;   SIGMA  =   0.20  broadening in eV -4-tet -1-fermi 0-gaus

 Electronic relaxation 2 (details)
   IALGO  =     48    algorithm
   LDIAG  =      T    sub-space diagonalisation (order eigenvalues)
   LSUBROT=      F    optimize rotation matrix (better conditioning)
   TURBO    =      0    0=normal 1=particle mesh
   IRESTART =      0    0=no restart 2=restart with 2 vectors
   NREBOOT  =      0    no. of reboots
   NMIN     =      0    reboot dimension
   EREF     =   0.00    reference energy to select bands
   IMIX   =      4    mixing-type and parameters
     AMIX     =   0.40;   BMIX     =  1.00
     AMIX_MAG =   1.60;   BMIX_MAG =  1.00
     AMIN     =   0.10
     WC   =   100.;   INIMIX=   1;  MIXPRE=   1;  MAXMIX= -45

 Intra band minimization:
   WEIMIN = 0.0010     energy-eigenvalue tresh-hold
   EBREAK =  0.50E-06  absolut break condition
   DEPER  =   0.30     relativ break condition  

   TIME   =   0.40     timestep for ELM

  volume/ion in A,a.u.               =      26.07       175.94
  Fermi-wavevector in a.u.,A,eV,Ry     =   0.796268  1.504727  8.626664  0.634042
  Thomas-Fermi vector in A             =   1.902757
 
 Write flags
   LWAVE        =      T    write WAVECAR
   LDOWNSAMPLE  =      F    k-point downsampling of WAVECAR
   LCHARG       =      T    write CHGCAR
   LVTOT        =      F    write LOCPOT, total local potential
   LVHAR        =      F    write LOCPOT, Hartree potential only
   LELF         =      F    write electronic localiz. function (ELF)
   LORBIT       =     10    0 simple, 1 ext, 2 COOP (PROOUT), +10 PAW based schemes


 Dipole corrections
   LMONO  =      F    monopole corrections only (constant potential shift)
   LDIPOL =      F    correct potential (dipole corrections)
   IDIPOL =      0    1-x, 2-y, 3-z, 4-all directions 
   EPSILON=  1.0000000 bulk dielectric constant

 Exchange correlation treatment:
   GGA     =    PE    GGA type
   LEXCH   =     8    internal setting for exchange type
   VOSKOWN=      0    Vosko Wilk Nusair interpolation
   LHFCALC =     F    Hartree Fock is set to
   LHFONE  =     F    Hartree Fock one center treatment
   AEXX    =    0.0000 exact exchange contribution

 Linear response parameters
   LEPSILON=     F    determine dielectric tensor
   LRPA    =     F    only Hartree local field effects (RPA)
   LNABLA  =     F    use nabla operator in PAW spheres
   LVEL    =     F    velocity operator in full k-point grid
   LINTERFAST=   F  fast interpolation
   KINTER  =     0    interpolate to denser k-point grid
   CSHIFT  =0.1000    complex shift for real part using Kramers Kronig
   OMEGAMAX=  -1.0    maximum frequency
   DEG_THRESHOLD= 0.2000000E-02 threshold for treating states as degnerate
   RTIME   =   -0.100 relaxation time in fs
  (WPLASMAI=    0.000 imaginary part of plasma frequency in eV, 0.658/RTIME)
   DFIELD  = 0.0000000 0.0000000 0.0000000 field for delta impulse in time
 
 Orbital magnetization related:
   ORBITALMAG=     F  switch on orbital magnetization
   LCHIMAG   =     F  perturbation theory with respect to B field
   DQ        =  0.001000  dq finite difference perturbation B field
   LLRAUG    =     F  two centre corrections for induced B field



--------------------------------------------------------------------------------------------------------


 conjugate gradient relaxation of ions
 charge density and potential will be updated during run
 non-spin polarized calculation
 RMM-DIIS sequential band-by-band
 perform sub-space diagonalisation
    before iterative eigenvector-optimisation
 modified Broyden-mixing scheme, WC =      100.0
 initial mixing is a Kerker type mixing with AMIX =  0.4000 and BMIX =      1.0000
 Hartree-type preconditioning will be used
 using additional bands            3
 reciprocal scheme for non local part
 use partial core corrections
 calculate Harris-corrections to forces 
   (improved forces if not selfconsistent)
 use gradient corrections 
 use of overlap-Matrix (Vanderbilt PP)
 Methfessel and Paxton  Order N= 1 SIGMA  =   0.20


--------------------------------------------------------------------------------------------------------


  energy-cutoff  :      400.00
  volume of cell :       26.07
      direct lattice vectors                 reciprocal lattice vectors
     2.952707012  0.259821612 -1.148898014     0.377888035 -0.019637888  0.096344758
     0.021059035  3.050667541  0.539216767    -0.035965919  0.331146585 -0.017545320
    -0.822813529  0.082517826  3.244098259     0.139807183 -0.061996187  0.345288873

  length of vectors
     3.178986098  3.098026896  3.347835840     0.390470647  0.333555762  0.377642664


 
 k-points in units of 2pi/SCALE and weight: read from INCAR                         
   0.00000000  0.00000000  0.00000000       0.008
   0.07557761 -0.00392758  0.01926895       0.016
   0.15115521 -0.00785516  0.03853790       0.016
  -0.00719318  0.06622932 -0.00350906       0.016
   0.06838442  0.06230174  0.01575989       0.016
   0.14396203  0.05837416  0.03502884       0.016
  -0.15834840  0.07408447 -0.04204697       0.016
  -0.08277079  0.07015689 -0.02277802       0.016
  -0.01438637  0.13245863 -0.00701813       0.016
   0.06119124  0.12853106  0.01225082       0.016
   0.13676885  0.12460348  0.03151978       0.016
  -0.16554158  0.14031379 -0.04555603       0.016
  -0.08996397  0.13638621 -0.02628708       0.016
   0.02796144 -0.01239924  0.06905777       0.016
   0.10353904 -0.01632681  0.08832673       0.016
   0.17911665 -0.02025439  0.10759568       0.016
  -0.12319378 -0.00454408  0.03051987       0.016
  -0.04761617 -0.00847166  0.04978882       0.016
   0.02076825  0.05383008  0.06554871       0.016
   0.09634586  0.04990250  0.08481766       0.016
   0.17192347  0.04597492  0.10408661       0.016
  -0.13038696  0.06168523  0.02701081       0.016
  -0.05480935  0.05775766  0.04627976       0.016
   0.01357507  0.12005940  0.06203965       0.016
   0.08915268  0.11613182  0.08130860       0.016
   0.16473028  0.11220424  0.10057755       0.016
  -0.13758014  0.12791455  0.02350174       0.016
  -0.06200254  0.12398697  0.04277070       0.016
   0.04234780 -0.14485787  0.07607590       0.016
   0.11792541 -0.14878545  0.09534485       0.016
   0.19350302 -0.15271303  0.11461381       0.016
  -0.10880741 -0.13700272  0.03753800       0.016
  -0.03322980 -0.14093029  0.05680695       0.016
   0.03515462 -0.07862855  0.07256684       0.016
   0.11073223 -0.08255613  0.09183579       0.016
   0.18630983 -0.08648371  0.11110474       0.016
  -0.11600059 -0.07077340  0.03402894       0.016
  -0.04042299 -0.07470098  0.05329789       0.016
   0.05592287 -0.02479847  0.13811555       0.016
   0.13150048 -0.02872605  0.15738450       0.016
   0.20707809 -0.03265363  0.17665345       0.016
  -0.09523234 -0.01694332  0.09957765       0.016
  -0.01965473 -0.02087090  0.11884660       0.016
   0.04872969  0.04143084  0.13460649       0.016
   0.12430730  0.03750326  0.15387544       0.016
   0.19988490  0.03357569  0.17314439       0.016
  -0.10242552  0.04928600  0.09606858       0.016
  -0.02684792  0.04535842  0.11533753       0.016
   0.04153651  0.10766016  0.13109742       0.016
   0.11711411  0.10373258  0.15036637       0.016
   0.19269172  0.09980500  0.16963532       0.016
  -0.10961871  0.11551531  0.09255952       0.016
  -0.03404110  0.11158774  0.11182847       0.016
   0.07030924 -0.15725711  0.14513368       0.016
   0.14588685 -0.16118469  0.16440263       0.016
   0.22146445 -0.16511226  0.18367158       0.016
  -0.08084597 -0.14940195  0.10659577       0.016
  -0.00526837 -0.15332953  0.12586473       0.016
   0.06311606 -0.09102779  0.14162461       0.016
   0.13869366 -0.09495537  0.16089356       0.016
   0.21427127 -0.09888295  0.18016252       0.016
  -0.08803916 -0.08317264  0.10308671       0.016
  -0.01246155 -0.08710021  0.12235566       0.016
 
 k-points in reciprocal lattice and weights: read from INCAR                         
   0.00000000  0.00000000  0.00000000       0.008
   0.20000000  0.00000000 -0.00000000       0.016
   0.40000000  0.00000000 -0.00000000       0.016
  -0.00000000  0.20000000 -0.00000000       0.016
   0.20000000  0.20000000  0.00000000       0.016
   0.40000000  0.20000000  0.00000000       0.016
  -0.40000000  0.20000000  0.00000000       0.016
  -0.20000000  0.20000000  0.00000000       0.016
  -0.00000000  0.40000000 -0.00000000       0.016
   0.20000000  0.40000000 -0.00000000       0.016
   0.40000000  0.40000000  0.00000000       0.016
  -0.40000000  0.40000000  0.00000000       0.016
  -0.20000000  0.40000000 -0.00000000       0.016
  -0.00000000  0.00000000  0.20000000       0.016
   0.20000000 -0.00000000  0.20000000       0.016
   0.40000000  0.00000000  0.20000000       0.016
  -0.40000000  0.00000000  0.20000000       0.016
  -0.20000000  0.00000000  0.20000000       0.016
   0.00000000  0.20000000  0.20000000       0.016
   0.20000000  0.20000000  0.20000000       0.016
   0.40000000  0.20000000  0.20000000       0.016
  -0.40000000  0.20000000  0.20000000       0.016
  -0.20000000  0.20000000  0.20000000       0.016
   0.00000000  0.40000000  0.20000000       0.016
   0.20000000  0.40000000  0.20000000       0.016
   0.40000000  0.40000000  0.20000000       0.016
  -0.40000000  0.40000000  0.20000000       0.016
  -0.20000000  0.40000000  0.20000000       0.016
   0.00000000 -0.40000000  0.20000000       0.016
   0.20000000 -0.40000000  0.20000000       0.016
   0.40000000 -0.40000000  0.20000000       0.016
  -0.40000000 -0.40000000  0.20000000       0.016
  -0.20000000 -0.40000000  0.20000000       0.016
   0.00000000 -0.20000000  0.20000000       0.016
   0.20000000 -0.20000000  0.20000000       0.016
   0.40000000 -0.20000000  0.20000000       0.016
  -0.40000000 -0.20000000  0.20000000       0.016
  -0.20000000 -0.20000000  0.20000000       0.016
  -0.00000000  0.00000000  0.40000000       0.016
   0.20000000  0.00000000  0.40000000       0.016
   0.40000000 -0.00000000  0.40000000       0.016
  -0.40000000  0.00000000  0.40000000       0.016
  -0.20000000  0.00000000  0.40000000       0.016
   0.00000000  0.20000000  0.40000000       0.016
   0.20000000  0.20000000  0.40000000       0.016
   0.40000000  0.20000000  0.40000000       0.016
  -0.40000000  0.20000000  0.40000000       0.016
  -0.20000000  0.20000000  0.40000000       0.016
   0.00000000  0.40000000  0.40000000       0.016
   0.20000000  0.40000000  0.40000000       0.016
   0.40000000  0.40000000  0.40000000       0.016
  -0.40000000  0.40000000  0.40000000       0.016
  -0.20000000  0.40000000  0.40000000       0.016
   0.00000000 -0.40000000  0.40000000       0.016
   0.20000000 -0.40000000  0.40000000       0.016
   0.40000000 -0.40000000  0.40000000       0.016
  -0.40000000 -0.40000000  0.40000000       0.016
  -0.20000000 -0.40000000  0.40000000       0.016
   0.00000000 -0.20000000  0.40000000       0.016
   0.20000000 -0.20000000  0.40000000       0.016
   0.40000000 -0.20000000  0.40000000       0.016
  -0.40000000 -0.20000000  0.40000000       0.016
  -0.20000000 -0.20000000  0.40000000       0.016
 
 position of ions in fractional coordinates (direct lattice) 
   0.92371990  0.41872333  0.93385728
 
 position of ions in cartesian coordinates  (Angst):
   1.96790172  1.59444795  2.19404747
 


--------------------------------------------------------------------------------------------------------


 k-point  1 :   0.0000 0.0000 0.0000  plane waves:     467
 k-point  2 :   0.2000 0.0000-0.0000  plane waves:     470
 k-point  3 :   0.4000 0.0000-0.0000  plane waves:     477
 k-point  4 :  -0.0000 0.2000-0.0000  plane waves:     469
 k-point  5 :   0.2000 0.2000 0.0000  plane waves:     471
 k-point  6 :   0.4000 0.2000 0.0000  plane waves:     477
 k-point  7 :  -0.4000 0.2000 0.0000  plane waves:     480
 k-point  8 :  -0.2000 0.2000 0.0000  plane waves:     475
 k-point  9 :  -0.0000 0.4000-0.0000  plane waves:     478
 k-point 10 :   0.2000 0.4000-0.0000  plane waves:     478
 k-point 11 :   0.4000 0.4000 0.0000  plane waves:     481
 k-point 12 :  -0.4000 0.4000 0.0000  plane waves:     478
 k-point 13 :  -0.2000 0.4000-0.0000  plane waves:     481
 k-point 14 :  -0.0000 0.0000 0.2000  plane waves:     477
 k-point 15 :   0.2000-0.0000 0.2000  plane waves:     472
 k-point 16 :   0.4000 0.0000 0.2000  plane waves:     475
 k-point 17 :  -0.4000 0.0000 0.2000  plane waves:     472
 k-point 18 :  -0.2000 0.0000 0.2000  plane waves:     463
 k-point 19 :   0.0000 0.2000 0.2000  plane waves:     476
 k-point 20 :   0.2000 0.2000 0.2000  plane waves:     475
 k-point 21 :   0.4000 0.2000 0.2000  plane waves:     483
 k-point 22 :  -0.4000 0.2000 0.2000  plane waves:     476
 k-point 23 :  -0.2000 0.2000 0.2000  plane waves:     474
 k-point 24 :   0.0000 0.4000 0.2000  plane waves:     472
 k-point 25 :   0.2000 0.4000 0.2000  plane waves:     479
 k-point 26 :   0.4000 0.4000 0.2000  plane waves:     480
 k-point 27 :  -0.4000 0.4000 0.2000  plane waves:     473
 k-point 28 :  -0.2000 0.4000 0.2000  plane waves:     479
 k-point 29 :   0.0000-0.4000 0.2000  plane waves:     473
 k-point 30 :   0.2000-0.4000 0.2000  plane waves:     477
 k-point 31 :   0.4000-0.4000 0.2000  plane waves:     480
 k-point 32 :  -0.4000-0.4000 0.2000  plane waves:     476
 k-point 33 :  -0.2000-0.4000 0.2000  plane waves:     471
 k-point 34 :   0.0000-0.2000 0.2000  plane waves:     475
 k-point 35 :   0.2000-0.2000 0.2000  plane waves:     473
 k-point 36 :   0.4000-0.2000 0.2000  plane waves:     477
 k-point 37 :  -0.4000-0.2000 0.2000  plane waves:     470
 k-point 38 :  -0.2000-0.2000 0.2000  plane waves:     468
 k-point 39 :  -0.0000 0.0000 0.4000  plane waves:     473
 k-point 40 :   0.2000 0.0000 0.4000  plane waves:     471
 k-point 41 :   0.4000-0.0000 0.4000  plane waves:     472
 k-point 42 :  -0.4000 0.0000 0.4000  plane waves:     464
 k-point 43 :  -0.2000 0.0000 0.4000  plane waves:     468
 k-point 44 :   0.0000 0.2000 0.4000  plane waves:     470
 k-point 45 :   0.2000 0.2000 0.4000  plane waves:     472
 k-point 46 :   0.4000 0.2000 0.4000  plane waves:     473
 k-point 47 :  -0.4000 0.2000 0.4000  plane waves:     473
 k-point 48 :  -0.2000 0.2000 0.4000  plane waves:     472
 k-point 49 :   0.0000 0.4000 0.4000  plane waves:     476
 k-point 50 :   0.2000 0.4000 0.4000  plane waves:     473
 k-point 51 :   0.4000 0.4000 0.4000  plane waves:     474
 k-point 52 :  -0.4000 0.4000 0.4000  plane waves:     472
 k-point 53 :  -0.2000 0.4000 0.4000  plane waves:     474
 k-point 54 :   0.0000-0.4000 0.4000  plane waves:     471
 k-point 55 :   0.2000-0.4000 0.4000  plane waves:     473
 k-point 56 :   0.4000-0.4000 0.4000  plane waves:     480
 k-point 57 :  -0.4000-0.4000 0.4000  plane waves:     473
 k-point 58 :  -0.2000-0.4000 0.4000  plane waves:     470
 k-point 59 :   0.0000-0.2000 0.4000  plane waves:     473
 k-point 60 :   0.2000-0.2000 0.4000  plane waves:     472
 k-point 61 :   0.4000-0.2000 0.4000  plane waves:     473
 k-point 62 :  -0.4000-0.2000 0.4000  plane waves:     470
 k-point 63 :  -0.2000-0.2000 0.4000  plane waves:     469

 maximum and minimum number of plane-waves per node :       127      112

 maximum number of plane-waves:       483
 maximum index in each direction: 
   IXMAX=    5   IYMAX=    5   IZMAX=    5
   IXMIN=   -5   IYMIN=   -5   IZMIN=   -5


 total amount of memory used by VASP MPI-rank0    31235. kBytes
=======================================================================

   base      :      30000. kBytes
   nonl-proj :        506. kBytes
   fftplans  :        246. kBytes
   grid      :        344. kBytes
   one-center:          3. kBytes
   wavefun   :        136. kBytes
 
     INWAV:  cpu time    0.0000: real time    0.0001
 Broyden mixing: mesh for mixing (old mesh)
   NGX = 11   NGY = 11   NGZ = 11
  (NGX  = 48   NGY  = 40   NGZ  = 48)
  gives a total of   1331 points

 initial charge density was supplied:
 charge density of overlapping atoms calculated
 number of electron       3.0000000 magnetization 
 keeping initial charge density in first step


--------------------------------------------------------------------------------------------------------


 Maximum index for augmentation-charges          837 (set IRDMAX)


--------------------------------------------------------------------------------------------------------


 First call to EWALD:  gamma=   0.598
 Maximum number of real-space cells 3x 3x 3
 Maximum number of reciprocal cells 3x 3x 3

    FEWALD:  cpu time    0.0012: real time    0.0012


--------------------------------------- Iteration      1(   1)  ---------------------------------------


    POTLOK:  cpu time    0.0060: real time    0.0066
    SETDIJ:  cpu time    0.0014: real time    0.0014
    EDDIAG:  cpu time    0.0318: real time    0.0319
  RMM-DIIS:  cpu time    0.0075: real time    0.0075
    ORTHCH:  cpu time    0.0013: real time    0.0013
       DOS:  cpu time    0.0006: real time    0.0006
    --------------------------------------------
      LOOP:  cpu time    0.0487: real time    0.0494

 eigenvalue-minimisations  :   315
 total energy-change (2. order) : 0.1274594E+01  (-0.2678359E+02)
 number of electron       3.0000000 magnetization 
 augmentation part        3.0000000 magnetization 

 Free energy of the ion-electron system (eV)
  ---------------------------------------------------
  alpha Z        PSCENC =        -0.12882990
  Ewald energy   TEWEN  =       -62.57441499
  -Hartree energ DENC   =        -0.76432166
  -exchange      EXHF   =         0.00000000
  -V(xc)+E(xc)   XCENC  =       -26.95250686
  PAW double counting   =        66.20015713      -34.24562076
  entropy T*S    EENTRO =         0.00000137
  eigenvalues    EBANDS =         6.20197501
  atomic energy  EATOM  =        53.53815432
  Solvation  Ediel_sol  =         0.00000000
  ---------------------------------------------------
  free energy    TOTEN  =         1.27459367 eV

  energy without entropy =        1.27459230  energy(sigma->0) =        1.27459321


--------------------------------------------------------------------------------------------------------




--------------------------------------- Iteration      1(   2)  ---------------------------------------


    EDDIAG:  cpu time    0.0230: real time    0.0232
  RMM-DIIS:  cpu time    0.0071: real time    0.0071
    ORTHCH:  cpu time    0.0009: real time    0.0009
       DOS:  cpu time    0.0004: real time    0.0004
    --------------------------------------------
      LOOP:  cpu time    0.0314: real time    0.0316

 eigenvalue-minimisations  :   315
 total energy-change (2. order) :-0.4065788E+01  (-0.3177237E+01)
 number of electron       3.0000000 magnetization 
 augmentation part        3.0000000 magnetization 

 Free energy of the ion-electron system (eV)
  ---------------------------------------------------
  alpha Z        PSCENC =        -0.12882990
  Ewald energy   TEWEN  =       -62.57441499
  -Hartree energ DENC   =        -0.76432166
  -exchange      EXHF   =         0.00000000
  -V(xc)+E(xc)   XCENC  =       -26.95250686
  PAW double counting   =        66.20015713      -34.24562076
  entropy T*S    EENTRO =         0.00109728
  eigenvalues    EBANDS =         2.13509093
  atomic energy  EATOM  =        53.53815432
  Solvation  Ediel_sol  =         0.00000000
  ---------------------------------------------------
  free energy    TOTEN  =        -2.79119450 eV

  energy without entropy =       -2.79229178  energy(sigma->0) =       -2.79156026


--------------------------------------------------------------------------------------------------------




--------------------------------------- Iteration      1(   3)  ---------------------------------------


    EDDIAG:  cpu time    0.0216: real time    0.0218
  RMM-DIIS:  cpu time    0.0071: real time    0.0071
    ORTHCH:  cpu time    0.0009: real time    0.0009
       DOS:  cpu time    0.0004: real time    0.0004
    --------------------------------------------
      LOOP:  cpu time    0.0300: real time    0.0302

 eigenvalue-minimisations  :   315
 total energy-change (2. order) :-0.4157321E+00  (-0.3298831E+00)
 number of electron       3.0000000 magnetization 
 augmentation part        3.0000000 magnetization 

 Free energy of the ion-electron system (eV)
  ---------------------------------------------------
  alpha Z        PSCENC =        -0.12882990
  Ewald energy   TEWEN  =       -62.57441499
  -Hartree energ DENC   =        -0.76432166
  -exchange      EXHF   =         0.00000000
  -V(xc)+E(xc)   XCENC  =       -26.95250686
  PAW double counting   =        66.20015713      -34.24562076
  entropy T*S    EENTRO =        -0.00118052
  eigenvalues    EBANDS =         1.72163661
  atomic energy  EATOM  =        53.53815432
  Solvation  Ediel_sol  =         0.00000000
  ---------------------------------------------------
  free energy    TOTEN  =        -3.20692662 eV

  energy without entropy =       -3.20574610  energy(sigma->0) =       -3.20653312


--------------------------------------------------------------------------------------------------------




--------------------------------------- Iteration      1(   4)  ---------------------------------------


    EDDIAG:  cpu time    0.0199: real time    0.0201
  RMM-DIIS:  cpu time    0.0071: real time    0.0071
    ORTHCH:  cpu time    0.0009: real time    0.0009
       DOS:  cpu time    0.0004: real time    0.0004
    --------------------------------------------
      LOOP:  cpu time    0.0284: real time    0.0286

 eigenvalue-minimisations  :   315
 total energy-change (2. order) :-0.6710385E-01  (-0.3965703E-01)
 number of electron       3.0000000 magnetization 
 augmentation part        3.0000000 magnetization 

 Free energy of the ion-electron system (eV)
  ---------------------------------------------------
  alpha Z        PSCENC =        -0.12882990
  Ewald energy   TEWEN  =       -62.57441499
  -Hartree energ DENC   =        -0.76432166
  -exchange      EXHF   =         0.00000000
  -V(xc)+E(xc)   XCENC  =       -26.95250686
  PAW double counting   =        66.20015713      -34.24562076
  entropy T*S    EENTRO =         0.00019421
  eigenvalues    EBANDS =         1.65315803
  atomic energy  EATOM  =        53.53815432
  Solvation  Ediel_sol  =         0.00000000
  ---------------------------------------------------
  free energy    TOTEN  =        -3.27403047 eV

  energy without entropy =       -3.27422468  energy(sigma->0) =       -3.27409521


--------------------------------------------------------------------------------------------------------




--------------------------------------- Iteration      1(   5)  ---------------------------------------


    EDDIAG:  cpu time    0.0195: real time    0.0196
  RMM-DIIS:  cpu time    0.0071: real time    0.0071
    ORTHCH:  cpu time    0.0009: real time    0.0009
       DOS:  cpu time    0.0004: real time    0.0004
    --------------------------------------------
      LOOP:  cpu time    0.0279: real time    0.0281

 eigenvalue-minimisations  :   315
 total energy-change (2. order) :-0.7725341E-02  (-0.5458797E-02)
 number of electron       3.0000000 magnetization 
 augmentation part        3.0000000 magnetization 

 Free energy of the ion-electron system (eV)
  ---------------------------------------------------
  alpha Z        PSCENC =        -0.12882990
  Ewald energy   TEWEN  =       -62.57441499
  -Hartree energ DENC   =        -0.76432166
  -exchange      EXHF   =         0.00000000
  -V(xc)+E(xc)   XCENC  =       -26.95250686
  PAW double counting   =        66.20015713      -34.24562076
  entropy T*S    EENTRO =         0.00019633
  eigenvalues    EBANDS =         1.64543057
  atomic energy  EATOM  =        53.53815432
  Solvation  Ediel_sol  =         0.00000000
  ---------------------------------------------------
  free energy    TOTEN  =        -3.28175581 eV

  energy without entropy =       -3.28195214  energy(sigma->0) =       -3.28182126


--------------------------------------------------------------------------------------------------------




--------------------------------------- Iteration      1(   6)  ---------------------------------------


    EDDIAG:  cpu time    0.0194: real time    0.0196
  RMM-DIIS:  cpu time    0.0071: real time    0.0071
    ORTHCH:  cpu time    0.0009: real time    0.0009
       DOS:  cpu time    0.0004: real time    0.0004
    --------------------------------------------
      LOOP:  cpu time    0.0278: real time    0.0280

 eigenvalue-minimisations  :   315
 total energy-change (2. order) :-0.1144207E-02  (-0.1026122E-02)
 number of electron       3.0000000 magnetization 
 augmentation part        3.0000000 magnetization 

 Free energy of the ion-electron system (eV)
  ---------------------------------------------------
  alpha Z        PSCENC =        -0.12882990
  Ewald energy   TEWEN  =       -62.57441499
  -Hartree energ DENC   =        -0.76432166
  -exchange      EXHF   =         0.00000000
  -V(xc)+E(xc)   XCENC  =       -26.95250686
  PAW double counting   =        66.20015713      -34.24562076
  entropy T*S    EENTRO =         0.00020169
  eigenvalues    EBANDS =         1.64428100
  atomic energy  EATOM  =        53.53815432
  Solvation  Ediel_sol  =         0.00000000
  ---------------------------------------------------
  free energy    TOTEN  =        -3.28290002 eV

  energy without entropy =       -3.28310172  energy(sigma->0) =       -3.28296725


--------------------------------------------------------------------------------------------------------




--------------------------------------- Iteration      1(   7)  ---------------------------------------


    EDDIAG:  cpu time    0.0191: real time    0.0193
  RMM-DIIS:  cpu time    0.0071: real time    0.0071
    ORTHCH:  cpu time    0.0009: real time    0.0009
       DOS:  cpu time    0.0005: real time    0.0005
    --------------------------------------------
      LOOP:  cpu time    0.0276: real time    0.0277

 eigenvalue-minimisations  :   315
 total energy-change (2. order) :-0.2337923E-03  (-0.2254584E-03)
 number of electron       3.0000000 magnetization 
 augmentation part        3.0000000 magnetization 

 Free energy of the ion-electron system (eV)
  ---------------------------------------------------
  alpha Z        PSCENC =        -0.12882990
  Ewald energy   TEWEN  =       -62.57441499
  -Hartree energ DENC   =        -0.76432166
  -exchange      EXHF   =         0.00000000
  -V(xc)+E(xc)   XCENC  =       -26.95250686
  PAW double counting   =        66.20015713      -34.24562076
  entropy T*S    EENTRO =         0.00020275
  eigenvalues    EBANDS =         1.64404614
  atomic energy  EATOM  =        53.53815432
  Solvation  Ediel_sol  =         0.00000000
  ---------------------------------------------------
  free energy    TOTEN  =        -3.28313381 eV

  energy without entropy =       -3.28333657  energy(sigma->0) =       -3.28320140


--------------------------------------------------------------------------------------------------------




--------------------------------------- Iteration      1(   8)  ---------------------------------------


    EDDIAG:  cpu time    0.0198: real time    0.0200
  RMM-DIIS:  cpu time    0.0071: real time    0.0071
    ORTHCH:  cpu time    0.0009: real time    0.0009
       DOS:  cpu time    0.0004: real time    0.0004
    --------------------------------------------
      LOOP:  cpu time    0.0283: real time    0.0284

 eigenvalue-minimisations  :   315
 total energy-change (2. order) :-0.5648938E-04  (-0.5488303E-04)
 number of electron       3.0000000 magnetization 
 augmentation part        3.0000000 magnetization 

 Free energy of the ion-electron system (eV)
  ---------------------------------------------------
  alpha Z        PSCENC =        -0.12882990
  Ewald energy   TEWEN  =       -62.57441499
  -Hartree energ DENC   =        -0.76432166
  -exchange      EXHF   =         0.00000000
  -V(xc)+E(xc)   XCENC  =       -26.95250686
  PAW double counting   =        66.20015713      -34.24562076
  entropy T*S    EENTRO =         0.00020290
  eigenvalues    EBANDS =         1.64398951
  atomic energy  EATOM  =        53.53815432
  Solvation  Ediel_sol  =         0.00000000
  ---------------------------------------------------
  free energy    TOTEN  =        -3.28319030 eV

  energy without entropy =       -3.28339320  energy(sigma->0) =       -3.28325794


--------------------------------------------------------------------------------------------------------




--------------------------------------- Iteration      1(   9)  ---------------------------------------


    EDDIAG:  cpu time    0.0188: real time    0.0190
  RMM-DIIS:  cpu time    0.0133: real time    0.0133
    ORTHCH:  cpu time    0.0009: real time    0.0009
       DOS:  cpu time    0.0004: real time    0.0004
    --------------------------------------------
      LOOP:  cpu time    0.0334: real time    0.0336

 eigenvalue-minimisations  :   631
 total energy-change (2. order) :-0.1788856E-04  (-0.1760204E-04)
 number of electron       3.0000000 magnetization 
 augmentation part        3.0000000 magnetization 

 Free energy of the ion-electron system (eV)
  ---------------------------------------------------
  alpha Z        PSCENC =        -0.12882990
  Ewald energy   TEWEN  =       -62.57441499
  -Hartree energ DENC   =        -0.76432166
  -exchange      EXHF   =         0.00000000
  -V(xc)+E(xc)   XCENC  =       -26.95250686
  PAW double counting   =        66.20015713      -34.24562076
  entropy T*S    EENTRO =         0.00020292
  eigenvalues    EBANDS =         1.64397160
  atomic energy  EATOM  =        53.53815432
  Solvation  Ediel_sol  =         0.00000000
  ---------------------------------------------------
  free energy    TOTEN  =        -3.28320819 eV

  energy without entropy =       -3.28341111  energy(sigma->0) =       -3.28327583


--------------------------------------------------------------------------------------------------------




--------------------------------------- Iteration      1(  10)  ---------------------------------------


    EDDIAG:  cpu time    0.0189: real time    0.0191
  RMM-DIIS:  cpu time    0.0114: real time    0.0114
    ORTHCH:  cpu time    0.0009: real time    0.0009
       DOS:  cpu time    0.0004: real time    0.0004
    --------------------------------------------
      LOOP:  cpu time    0.0317: real time    0.0318

 eigenvalue-minimisations  :   560
 total energy-change (2. order) :-0.1844599E-05  (-0.1843945E-05)
 number of electron       3.0000000 magnetization 
 augmentation part        3.0000000 magnetization 

 Free energy of the ion-electron system (eV)
  ---------------------------------------------------
  alpha Z        PSCENC =        -0.12882990
  Ewald energy   TEWEN  =       -62.57441499
  -Hartree energ DENC   =        -0.76432166
  -exchange      EXHF   =         0.00000000
  -V(xc)+E(xc)   XCENC  =       -26.95250686
  PAW double counting   =        66.20015713      -34.24562076
  entropy T*S    EENTRO =         0.00020292
  eigenvalues    EBANDS =         1.64396976
  atomic energy  EATOM  =        53.53815432
  Solvation  Ediel_sol  =         0.00000000
  ---------------------------------------------------
  free energy    TOTEN  =        -3.28321004 eV

  energy without entropy =       -3.28341295  energy(sigma->0) =       -3.28327768


--------------------------------------------------------------------------------------------------------




--------------------------------------- Iteration      1(  11)  ---------------------------------------


    EDDIAG:  cpu time    0.0187: real time    0.0189
  RMM-DIIS:  cpu time    0.0111: real time    0.0111
    ORTHCH:  cpu time    0.0009: real time    0.0009
       DOS:  cpu time    0.0004: real time    0.0004
    --------------------------------------------
      LOOP:  cpu time    0.0311: real time    0.0313

 eigenvalue-minimisations  :   453
 total energy-change (2. order) :-0.2201321E-06  (-0.2202442E-06)
 number of electron       3.0000000 magnetization 
 augmentation part        3.0000000 magnetization 

 Free energy of the ion-electron system (eV)
  ---------------------------------------------------
  alpha Z        PSCENC =        -0.12882990
  Ewald energy   TEWEN  =       -62.57441499
  -Hartree energ DENC   =        -0.76432166
  -exchange      EXHF   =         0.00000000
  -V(xc)+E(xc)   XCENC  =       -26.95250686
  PAW double counting   =        66.20015713      -34.24562076
  entropy T*S    EENTRO =         0.00020292
  eigenvalues    EBANDS =         1.64396954
  atomic energy  EATOM  =        53.53815432
  Solvation  Ediel_sol  =         0.00000000
  ---------------------------------------------------
  free energy    TOTEN  =        -3.28321026 eV

  energy without entropy =       -3.28341318  energy(sigma->0) =       -3.28327790


--------------------------------------------------------------------------------------------------------




--------------------------------------- Iteration      1(  12)  ---------------------------------------


    EDDIAG:  cpu time    0.0196: real time    0.0198
  RMM-DIIS:  cpu time    0.0124: real time    0.0125
    ORTHCH:  cpu time    0.0010: real time    0.0010
       DOS:  cpu time    0.0003: real time    0.0003
    CHARGE:  cpu time    0.0050: real time    0.0050
    MIXING:  cpu time    0.0006: real time    0.0007
    --------------------------------------------
      LOOP:  cpu time    0.0390: real time    0.0393

 eigenvalue-minimisations  :   412
 total energy-change (2. order) :-0.7842316E-07  (-0.7792763E-07)
 number of electron       3.0000000 magnetization 
 augmentation part       -0.0473836 magnetization 

 Broyden mixing:
  rms(total) = 0.83286E-01    rms(broyden)= 0.83285E-01
  rms(prec ) = 0.25710E+00
  weight for this iteration     100.00

 Free energy of the ion-electron system (eV)
  ---------------------------------------------------
  alpha Z        PSCENC =        -0.12882990
  Ewald energy   TEWEN  =       -62.57441499
  -Hartree energ DENC   =        -0.76432166
  -exchange      EXHF   =         0.00000000
  -V(xc)+E(xc)   XCENC  =       -26.95250686
  PAW double counting   =        66.20015713      -34.24562076
  entropy T*S    EENTRO =         0.00020292
  eigenvalues    EBANDS =         1.64396946
  atomic energy  EATOM  =        53.53815432
  Solvation  Ediel_sol  =         0.00000000
  ---------------------------------------------------
  free energy    TOTEN  =        -3.28321034 eV

  energy without entropy =       -3.28341325  energy(sigma->0) =       -3.28327797


--------------------------------------------------------------------------------------------------------




--------------------------------------- Iteration      1(  13)  ---------------------------------------


    POTLOK:  cpu time    0.0038: real time    0.0040
    SETDIJ:  cpu time    0.0006: real time    0.0006
    EDDIAG:  cpu time    0.0225: real time    0.0225
  RMM-DIIS:  cpu time    0.0132: real time    0.0132
    ORTHCH:  cpu time    0.0009: real time    0.0009
       DOS:  cpu time    0.0005: real time    0.0005
    CHARGE:  cpu time    0.0039: real time    0.0039
    MIXING:  cpu time    0.0005: real time    0.0005
    --------------------------------------------
      LOOP:  cpu time    0.0459: real time    0.0462

 eigenvalue-minimisations  :   630
 total energy-change (2. order) : 0.7217940E-02  (-0.2054371E-03)
 number of electron       3.0000000 magnetization 
 augmentation part       -0.0480221 magnetization 

 Broyden mixing:
  rms(total) = 0.50197E-01    rms(broyden)= 0.50197E-01
  rms(prec ) = 0.16026E+00
  weight for this iteration     100.00

 eigenvalues of (default mixing * dielectric matrix)
  average eigenvalue GAMMA=   2.4207
  2.4207

 Free energy of the ion-electron system (eV)
  ---------------------------------------------------
  alpha Z        PSCENC =        -0.12882990
  Ewald energy   TEWEN  =       -62.57441499
  -Hartree energ DENC   =        -0.67947361
  -exchange      EXHF   =         0.00000000
  -V(xc)+E(xc)   XCENC  =       -26.94472153
  PAW double counting   =        75.88081237      -43.91765909
  entropy T*S    EENTRO =         0.00030746
  eigenvalues    EBANDS =         1.54983256
  atomic energy  EATOM  =        53.53815432
  Solvation  Ediel_sol  =         0.00000000
  ---------------------------------------------------
  free energy    TOTEN  =        -3.27599240 eV

  energy without entropy =       -3.27629986  energy(sigma->0) =       -3.27609488


--------------------------------------------------------------------------------------------------------




--------------------------------------- Iteration      1(  14)  ---------------------------------------


    POTLOK:  cpu time    0.0031: real time    0.0033
    SETDIJ:  cpu time    0.0013: real time    0.0013
    EDDIAG:  cpu time    0.0198: real time    0.0198
  RMM-DIIS:  cpu time    0.0122: real time    0.0122
    ORTHCH:  cpu time    0.0009: real time    0.0009
       DOS:  cpu time    0.0004: real time    0.0004
    CHARGE:  cpu time    0.0035: real time    0.0035
    MIXING:  cpu time    0.0003: real time    0.0003
    --------------------------------------------
      LOOP:  cpu time    0.0415: real time    0.0418

 eigenvalue-minimisations  :   630
 total energy-change (2. order) : 0.5041250E-02  (-0.6008133E-03)
 number of electron       3.0000000 magnetization 
 augmentation part       -0.0491823 magnetization 

 Broyden mixing:
  rms(total) = 0.92536E-02    rms(broyden)= 0.92536E-02
  rms(prec ) = 0.10883E-01
  weight for this iteration     100.00

 eigenvalues of (default mixing * dielectric matrix)
  average eigenvalue GAMMA=   2.6780
  2.6780  2.6780

 Free energy of the ion-electron system (eV)
  ---------------------------------------------------
  alpha Z        PSCENC =        -0.12882990
  Ewald energy   TEWEN  =       -62.57441499
  -Hartree energ DENC   =        -0.57664331
  -exchange      EXHF   =         0.00000000
  -V(xc)+E(xc)   XCENC  =       -26.92152424
  PAW double counting   =        91.67227795      -59.69752112
  entropy T*S    EENTRO =         0.00043183
  eigenvalues    EBANDS =         1.41711830
  atomic energy  EATOM  =        53.53815432
  Solvation  Ediel_sol  =         0.00000000
  ---------------------------------------------------
  free energy    TOTEN  =        -3.27095115 eV

  energy without entropy =       -3.27138297  energy(sigma->0) =       -3.27109509


--------------------------------------------------------------------------------------------------------




--------------------------------------- Iteration      1(  15)  ---------------------------------------


    POTLOK:  cpu time    0.0030: real time    0.0032
    SETDIJ:  cpu time    0.0012: real time    0.0012
    EDDIAG:  cpu time    0.0192: real time    0.0192
  RMM-DIIS:  cpu time    0.0120: real time    0.0120
    ORTHCH:  cpu time    0.0010: real time    0.0010
       DOS:  cpu time    0.0004: real time    0.0004
    --------------------------------------------
      LOOP:  cpu time    0.0367: real time    0.0370

 eigenvalue-minimisations  :   630
 total energy-change (2. order) : 0.2228998E-05  (-0.4973025E-05)
 number of electron       3.0000000 magnetization 
 augmentation part       -0.0491823 magnetization 

 Free energy of the ion-electron system (eV)
  ---------------------------------------------------
  alpha Z        PSCENC =        -0.12882990
  Ewald energy   TEWEN  =       -62.57441499
  -Hartree energ DENC   =        -0.58148950
  -exchange      EXHF   =         0.00000000
  -V(xc)+E(xc)   XCENC  =       -26.92009040
  PAW double counting   =        86.64638367      -54.67572559
  entropy T*S    EENTRO =         0.00042739
  eigenvalues    EBANDS =         1.42463609
  atomic energy  EATOM  =        53.53815432
  Solvation  Ediel_sol  =         0.00000000
  ---------------------------------------------------
  free energy    TOTEN  =        -3.27094892 eV

  energy without entropy =       -3.27137630  energy(sigma->0) =       -3.27109138


--------------------------------------------------------------------------------------------------------




 average (electrostatic) potential at core
  the test charge radii are     1.0406
  (the norm of the test charge is              1.0000)
       1 -77.1221
 
 
 
 E-fermi :   3.6802     XC(G=0):  -8.5921     alpha+bet : -9.4148


 k-point     1 :       0.0000    0.0000    0.0000
  band No.  band energies     occupation 
      1      -4.4529      2.00000
      2      10.6509      0.00000
      3      11.3648      0.00000
      4      11.7092      0.00000
      5      13.3883      0.00000

 k-point     2 :       0.2000    0.0000   -0.0000
  band No.  band energies     occupation 
      1      -3.5592      2.00000
      2       8.8886     -0.00000
      3       9.5364      0.00000
      4      10.9587      0.00000
      5      12.1170      0.00000

 k-point     3 :       0.4000    0.0000   -0.0000
  band No.  band energies     occupation 
      1      -0.9126      2.00000
      2       3.4167      2.06859
      3       8.2770     -0.00000
      4      10.0033      0.00000
      5      12.2276      0.00000

 k-point     4 :      -0.0000    0.2000   -0.0000
  band No.  band energies     occupation 
      1      -3.8191      2.00000
      2       5.8612     -0.00000
      3      12.0140      0.00000
      4      13.5826      0.00000
      5      17.1027      0.00000

 k-point     5 :       0.2000    0.2000    0.0000
  band No.  band energies     occupation 
      1      -3.1735      2.00000
      2       7.4490     -0.00000
      3       9.5605      0.00000
      4      10.8855      0.00000
      5      13.8683      0.00000

 k-point     6 :       0.4000    0.2000    0.0000
  band No.  band energies     occupation 
      1      -0.7744      2.00000
      2       4.6828     -0.00000
      3       8.1948     -0.00000
      4       9.9283      0.00000
      5      11.5506      0.00000

 k-point     7 :      -0.4000    0.2000    0.0000
  band No.  band energies     occupation 
      1       0.1870      2.00000
      2       3.2839      2.01697
      3       7.3877     -0.00000
      4       8.4823     -0.00000
      5      10.9707      0.00000

 k-point     8 :      -0.2000    0.2000    0.0000
  band No.  band energies     occupation 
      1      -2.6841      2.00000
      2       5.6996     -0.00000
      3       8.9119     -0.00000
      4      10.1920      0.00000
      5      12.3102      0.00000

 k-point     9 :      -0.0000    0.4000   -0.0000
  band No.  band energies     occupation 
      1      -2.0278      2.00000
      2       1.6823      2.00000
      3      12.9870      0.00000
      4      13.8982      0.00000
      5      14.7355      0.00000

 k-point    10 :       0.2000    0.4000   -0.0000
  band No.  band energies     occupation 
      1      -1.5810      2.00000
      2       3.1921      2.00301
      3      10.3558      0.00000
      4      11.3961      0.00000
      5      13.1827      0.00000

 k-point    11 :       0.4000    0.4000    0.0000
  band No.  band energies     occupation 
      1       0.5798      2.00000
      2       5.9760     -0.00000
      3       6.3677     -0.00000
      4       8.5940     -0.00000
      5       9.0705     -0.00000

 k-point    12 :      -0.4000    0.4000    0.0000
  band No.  band energies     occupation 
      1       2.1039      2.00000
      2       3.6607      1.16370
      3       4.7733     -0.00000
      4       9.0251     -0.00000
      5      11.5568      0.00000

 k-point    13 :      -0.2000    0.4000   -0.0000
  band No.  band energies     occupation 
      1      -0.7574      2.00000
      2       1.9055      2.00000
      3       9.6143      0.00000
      4      10.8616      0.00000
      5      13.1500      0.00000

 k-point    14 :      -0.0000    0.0000    0.2000
  band No.  band energies     occupation 
      1      -3.6186      2.00000
      2       8.3024     -0.00000
      3      10.0095      0.00000
      4      10.4116      0.00000
      5      12.7039      0.00000

 k-point    15 :       0.2000   -0.0000    0.2000
  band No.  band energies     occupation 
      1      -1.7141      2.00000
      2       5.1190     -0.00000
      3       6.7268     -0.00000
      4      10.9625      0.00000
      5      14.1290      0.00000

 k-point    16 :       0.4000    0.0000    0.2000
  band No.  band energies     occupation 
      1       1.1075      2.00000
      2       1.9723      2.00000
      3       4.3682     -0.00001
      4      12.7701      0.00000
      5      13.8061      0.00000

 k-point    17 :      -0.4000    0.0000    0.2000
  band No.  band energies     occupation 
      1      -2.1275      2.00000
      2       4.5761     -0.00000
      3       7.1524     -0.00000
      4      12.3452      0.00000
      5      16.8249      0.00000

 k-point    18 :      -0.2000    0.0000    0.2000
  band No.  band energies     occupation 
      1      -3.7562      2.00000
      2       6.5932     -0.00000
      3      11.0589      0.00000
      4      12.2348      0.00000
      5      12.9027      0.00000

 k-point    19 :       0.0000    0.2000    0.2000
  band No.  band energies     occupation 
      1      -3.3413      2.00000
      2       7.7606     -0.00000
      3      10.2400      0.00000
      4      10.9661      0.00000
      5      13.3124      0.00000

 k-point    20 :       0.2000    0.2000    0.2000
  band No.  band energies     occupation 
      1      -1.6822      2.00000
      2       6.5594     -0.00000
      3       7.8728     -0.00000
      4      10.2164      0.00000
      5      11.8668      0.00000

 k-point    21 :       0.4000    0.2000    0.2000
  band No.  band energies     occupation 
      1       1.6208      2.00000
      2       2.2618      2.00000
      3       5.7087     -0.00000
      4       9.3248      0.00000
      5      11.7274      0.00000

 k-point    22 :      -0.4000    0.2000    0.2000
  band No.  band energies     occupation 
      1      -1.3590      2.00000
      2       5.5927     -0.00000
      3       6.6875     -0.00000
      4       7.8861     -0.00000
      5      12.3376      0.00000

 k-point    23 :      -0.2000    0.2000    0.2000
  band No.  band energies     occupation 
      1      -3.2313      2.00000
      2       6.6320     -0.00000
      3       7.9710     -0.00000
      4      12.8275      0.00000
      5      14.7760      0.00000

 k-point    24 :       0.0000    0.4000    0.2000
  band No.  band energies     occupation 
      1      -1.8426      2.00000
      2       3.4371      2.07089
      3       9.6516      0.00000
      4      12.3648      0.00000
      5      13.8481      0.00000

 k-point    25 :       0.2000    0.4000    0.2000
  band No.  band energies     occupation 
      1      -0.4193      2.00000
      2       5.7667     -0.00000
      3       7.3132     -0.00000
      4       9.2238      0.00000
      5      10.2509      0.00000

 k-point    26 :       0.4000    0.4000    0.2000
  band No.  band energies     occupation 
      1       2.6648      2.00000
      2       4.1399     -0.00543
      3       5.8659     -0.00000
      4       6.7960     -0.00000
      5       9.5906      0.00000

 k-point    27 :      -0.4000    0.4000    0.2000
  band No.  band energies     occupation 
      1       0.5197      2.00000
      2       3.4468      2.06981
      3       7.3093     -0.00000
      4       7.5658     -0.00000
      5       9.8287      0.00000

 k-point    28 :      -0.2000    0.4000    0.2000
  band No.  band energies     occupation 
      1      -1.5221      2.00000
      2       2.6191      2.00000
      3       9.3100      0.00000
      4      11.8823      0.00000
      5      13.0616      0.00000

 k-point    29 :       0.0000   -0.4000    0.2000
  band No.  band energies     occupation 
      1      -0.6870      2.00000
      2       1.6179      2.00000
      3       8.1678     -0.00000
      4      11.7952      0.00000
      5      14.2336      0.00000

 k-point    30 :       0.2000   -0.4000    0.2000
  band No.  band energies     occupation 
      1       1.3129      2.00000
      2       3.0266      2.00004
      3       5.5835     -0.00000
      4       7.7886     -0.00000
      5      13.4384      0.00000

 k-point    31 :       0.4000   -0.4000    0.2000
  band No.  band energies     occupation 
      1       2.7426      2.00000
      2       4.6688     -0.00000
      3       4.9277     -0.00000
      4       6.4685     -0.00000
      5       8.8419     -0.00000

 k-point    32 :      -0.4000   -0.4000    0.2000
  band No.  band energies     occupation 
      1       0.0352      2.00000
      2       4.1370     -0.00576
      3       5.8464     -0.00000
      4       9.2644      0.00000
      5      11.8214      0.00000

 k-point    33 :      -0.2000   -0.4000    0.2000
  band No.  band energies     occupation 
      1      -1.1548      2.00000
      2       2.0510      2.00000
      3       8.1795     -0.00000
      4      12.1307      0.00000
      5      13.9300      0.00000

 k-point    34 :       0.0000   -0.2000    0.2000
  band No.  band energies     occupation 
      1      -2.6375      2.00000
      2       5.2624     -0.00000
      3       7.7433     -0.00000
      4      10.5198      0.00000
      5      13.2282      0.00000

 k-point    35 :       0.2000   -0.2000    0.2000
  band No.  band energies     occupation 
      1      -0.5091      2.00000
      2       4.6186     -0.00000
      3       6.1530     -0.00000
      4       6.8883     -0.00000
      5      15.6096      0.00000

 k-point    36 :       0.4000   -0.2000    0.2000
  band No.  band energies     occupation 
      1       1.3599      2.00000
      2       3.2695      2.01340
      3       4.1603     -0.00357
      4       8.7905     -0.00000
      5      12.9460      0.00000

 k-point    37 :      -0.4000   -0.2000    0.2000
  band No.  band energies     occupation 
      1      -1.6398      2.00000
      2       4.5261     -0.00000
      3       8.0370     -0.00000
      4       9.4236      0.00000
      5      13.1516      0.00000

 k-point    38 :      -0.2000   -0.2000    0.2000
  band No.  band energies     occupation 
      1      -3.0167      2.00000
      2       5.9272     -0.00000
      3       7.0520     -0.00000
      4      11.9664      0.00000
      5      15.4862      0.00000

 k-point    39 :      -0.0000    0.0000    0.4000
  band No.  band energies     occupation 
      1      -1.1538      2.00000
      2       2.9590      2.00000
      3       9.3149      0.00000
      4      10.4838      0.00000
      5      11.3090      0.00000

 k-point    40 :       0.2000    0.0000    0.4000
  band No.  band energies     occupation 
      1       0.6537      2.00000
      2       1.8750      2.00000
      3       4.9695     -0.00000
      4      11.8471      0.00000
      5      13.1596      0.00000

 k-point    41 :       0.4000   -0.0000    0.4000
  band No.  band energies     occupation 
      1      -0.1060      2.00000
      2       1.3962      2.00000
      3       6.2851     -0.00000
      4      12.6434      0.00000
      5      15.5201      0.00000

 k-point    42 :      -0.4000    0.0000    0.4000
  band No.  band energies     occupation 
      1      -1.7433      2.00000
      2       2.0201      2.00000
      3      11.4644      0.00000
      4      12.1232      0.00000
      5      15.7233      0.00000

 k-point    43 :      -0.2000    0.0000    0.4000
  band No.  band energies     occupation 
      1      -2.3009      2.00000
      2       4.9880     -0.00000
      3       6.7106     -0.00000
      4      11.0497      0.00000
      5      15.0148      0.00000

 k-point    44 :       0.0000    0.2000    0.4000
  band No.  band energies     occupation 
      1      -1.2233      2.00000
      2       4.5034     -0.00000
      3       8.6358     -0.00000
      4       9.9074      0.00000
      5      11.5879      0.00000

 k-point    45 :       0.2000    0.2000    0.4000
  band No.  band energies     occupation 
      1       1.3066      2.00000
      2       2.2786      2.00000
      3       5.7437     -0.00000
      4       7.8751     -0.00000
      5      14.1174      0.00000

 k-point    46 :       0.4000    0.2000    0.4000
  band No.  band energies     occupation 
      1       0.8346      2.00000
      2       2.2399      2.00000
      3       5.7160     -0.00000
      4       8.2324     -0.00000
      5      11.4679      0.00000

 k-point    47 :      -0.4000    0.2000    0.4000
  band No.  band energies     occupation 
      1      -1.3110      2.00000
      2       2.9027      2.00000
      3       8.8487     -0.00000
      4      11.4169      0.00000
      5      11.5306      0.00000

 k-point    48 :      -0.2000    0.2000    0.4000
  band No.  band energies     occupation 
      1      -2.1296      2.00000
      2       5.6173     -0.00000
      3       8.1498     -0.00000
      4       9.8796      0.00000
      5      12.2709      0.00000

 k-point    49 :       0.0000    0.4000    0.4000
  band No.  band energies     occupation 
      1      -0.0613      2.00000
      2       5.1324     -0.00000
      3       6.3439     -0.00000
      4       8.6764     -0.00000
      5      11.2543      0.00000

 k-point    50 :       0.2000    0.4000    0.4000
  band No.  band energies     occupation 
      1       2.2951      2.00000
      2       3.5833      1.72284
      3       5.3332     -0.00000
      4       7.6014     -0.00000
      5      11.1993      0.00000

 k-point    51 :       0.4000    0.4000    0.4000
  band No.  band energies     occupation 
      1       2.8604      2.00000
      2       3.6323      1.39294
      3       4.7090     -0.00000
      4       6.5792     -0.00000
      5       7.7119     -0.00000

 k-point    52 :      -0.4000    0.4000    0.4000
  band No.  band energies     occupation 
      1       0.3209      2.00000
      2       4.4152     -0.00000
      3       4.9087     -0.00000
      4       7.8085     -0.00000
      5      11.7555      0.00000

 k-point    53 :      -0.2000    0.4000    0.4000
  band No.  band energies     occupation 
      1      -0.7305      2.00000
      2       4.8679     -0.00000
      3       7.3859     -0.00000
      4       8.4164     -0.00000
      5      10.8586      0.00000

 k-point    54 :       0.0000   -0.4000    0.4000
  band No.  band energies     occupation 
      1       1.8117      2.00000
      2       3.0243      2.00004
      3       3.9196     -0.07067
      4      11.1311      0.00000
      5      11.6280      0.00000

 k-point    55 :       0.2000   -0.4000    0.4000
  band No.  band energies     occupation 
      1       1.6205      2.00000
      2       4.2140     -0.00105
      3       6.1969     -0.00000
      4       6.9670     -0.00000
      5       9.5084      0.00000

 k-point    56 :       0.4000   -0.4000    0.4000
  band No.  band energies     occupation 
      1       1.5484      2.00000
      2       3.3176      2.02789
      3       6.2200     -0.00000
      4       8.1842     -0.00000
      5       8.9117     -0.00000

 k-point    57 :      -0.4000   -0.4000    0.4000
  band No.  band energies     occupation 
      1       1.0083      2.00000
      2       3.2914      2.01909
      3       4.2123     -0.00110
      4       9.1073     -0.00000
      5      13.7415      0.00000

 k-point    58 :      -0.2000   -0.4000    0.4000
  band No.  band energies     occupation 
      1       0.7239      2.00000
      2       2.6313      2.00000
      3       6.6761     -0.00000
      4       7.1786     -0.00000
      5      11.4971      0.00000

 k-point    59 :       0.0000   -0.2000    0.4000
  band No.  band energies     occupation 
      1       0.1361      2.00000
      2       2.5423      2.00000
      3       6.3246     -0.00000
      4       9.8318      0.00000
      5      11.5075      0.00000

 k-point    60 :       0.2000   -0.2000    0.4000
  band No.  band energies     occupation 
      1       0.5512      2.00000
      2       3.2890      2.01840
      3       5.2593     -0.00000
      4       8.2831     -0.00000
      5      13.8773      0.00000

 k-point    61 :       0.4000   -0.2000    0.4000
  band No.  band energies     occupation 
      1       0.1339      2.00000
      2       1.7976      2.00000
      3       7.7657     -0.00000
      4      10.4911      0.00000
      5      12.3473      0.00000

 k-point    62 :      -0.4000   -0.2000    0.4000
  band No.  band energies     occupation 
      1      -0.9201      2.00000
      2       2.3153      2.00000
      3       7.6457     -0.00000
      4      11.0898      0.00000
      5      13.3382      0.00000

 k-point    63 :      -0.2000   -0.2000    0.4000
  band No.  band energies     occupation 
      1      -1.2226      2.00000
      2       5.2681     -0.00000
      3       6.0023     -0.00000
      4       6.5830     -0.00000
      5      15.4692      0.00000


--------------------------------------------------------------------------------------------------------


 soft charge-density along one line, spin component           1
         0         1         2         3         4         5         6         7         8         9
 total charge-density along one line
 
 pseudopotential strength for first ion, spin component:           1
  8.583  14.636  -0.000  -0.000  -0.000  -0.000  -0.000  -0.000
 14.636  24.957  -0.000  -0.000  -0.000  -0.000  -0.000  -0.000
 -0.000  -0.000   1.976  -0.000  -0.000   5.727  -0.001  -0.000
 -0.000  -0.000  -0.000   1.976  -0.000  -0.001   5.728  -0.000
 -0.000  -0.000  -0.000  -0.000   1.975  -0.000  -0.000   5.727
 -0.000  -0.000   5.727  -0.001  -0.000  16.502  -0.002  -0.001
 -0.000  -0.000  -0.001   5.728  -0.000  -0.002  16.503  -0.001
 -0.000  -0.000  -0.000  -0.000   5.727  -0.001  -0.001  16.501
 total augmentation occupancy for first ion, spin component:           1
  2.273  -0.304   0.000   0.000   0.000   0.000   0.000   0.000
 -0.304   0.108   0.000   0.000   0.000   0.000   0.000   0.000
  0.000   0.000   0.697   0.084   0.037  -0.034  -0.004  -0.002
  0.000   0.000   0.084   0.650   0.071  -0.004  -0.034  -0.004
  0.000   0.000   0.037   0.071   0.732  -0.002  -0.004  -0.038
  0.000   0.000  -0.034  -0.004  -0.002   0.002   0.000   0.000
  0.000   0.000  -0.004  -0.034  -0.004   0.000   0.002   0.000
  0.000   0.000  -0.002  -0.004  -0.038   0.000   0.000   0.002


------------------------ aborting loop because EDIFF is reached ----------------------------------------


 


 total charge     
 
# of ion       s       p       d       tot
------------------------------------------
    1        0.482   0.229   0.000   0.711
 
    CHARGE:  cpu time    0.0039: real time    0.0039
    FORLOC:  cpu time    0.0002: real time    0.0002
    FORNL :  cpu time    0.0015: real time    0.0016
    STRESS:  cpu time    0.0175: real time    0.0176
    FORCOR:  cpu time    0.0031: real time    0.0031
    FORHAR:  cpu time    0.0007: real time    0.0007
    MIXING:  cpu time    0.0004: real time    0.0004
    OFIELD:  cpu time    0.0001: real time    0.0001

  FORCE on cell =-STRESS in cart. coord.  units (eV):
  Direction    XX          YY          ZZ          XY          YZ          ZX
  --------------------------------------------------------------------------------------
  Alpha Z    -0.12883    -0.12883    -0.12883
  Ewald     -19.67824   -22.46524   -20.43095     0.66397     1.22832     1.56094
  Hartree     0.31889    -0.01503     0.27701     0.02905     0.06836     0.13586
  E(xc)      -7.70539    -7.70196    -7.68425    -0.01411    -0.02768    -0.01546
  Local      -3.88328    -0.90747    -2.78602    -0.81054    -1.67575    -1.79406
  n-local    18.89668    18.72471    18.59693     0.20389     0.43409     0.25678
  augment    -1.32901    -1.32249    -1.29924    -0.01185    -0.02870    -0.02255
  Kinetic    11.96890    12.28266    11.35170    -0.05184    -0.16380     0.27887
  Fock        0.00000     0.00000     0.00000     0.00000     0.00000     0.00000
  -------------------------------------------------------------------------------------
  Total      -1.54028    -1.53365    -2.10367     0.00857    -0.16516     0.40038
  in kB     -94.65449   -94.24730  -129.27638     0.52648   -10.14930    24.60419
  external pressure =     -106.06 kB  Pullay stress =        0.00 kB


 VOLUME and BASIS-vectors are now :
 -----------------------------------------------------------------------------
  energy-cutoff  :      400.00
  volume of cell :       26.07
      direct lattice vectors                 reciprocal lattice vectors
     2.952707012  0.259821612 -1.148898014     0.377888035 -0.019637888  0.096344758
     0.021059035  3.050667541  0.539216767    -0.035965919  0.331146585 -0.017545320
    -0.822813529  0.082517826  3.244098259     0.139807183 -0.061996187  0.345288873

  length of vectors
     3.178986098  3.098026896  3.347835840     0.390470647  0.333555762  0.377642664


 FORCES acting on ions
    electron-ion (+dipol)            ewald-force                    non-local-force                 convergence-correction
 -----------------------------------------------------------------------------------------------
   -.146E-05 0.546E-05 -.888E-06   -.770E-16 -.468E-16 -.128E-15   0.000E+00 0.384E-21 -.424E-21   -.325E-09 -.239E-10 -.170E-09
 -----------------------------------------------------------------------------------------------
   -.146E-05 0.546E-05 -.888E-06   -.770E-16 -.468E-16 -.128E-15   0.000E+00 0.384E-21 -.424E-21   -.325E-09 -.239E-10 -.170E-09
 
 
 POSITION                                       TOTAL-FORCE (eV/Angst)
 -----------------------------------------------------------------------------------
      1.96790      1.59445      2.19405        -0.000000     -0.000000      0.000000
[...]
      4      10.9502      0.00000
      5      14.7170      0.00000

 k-point    16 :       0.4000    0.0000    0.2000
  band No.  band energies     occupation 
      1       0.5888      2.00000
      2       1.6197      2.00000
      3       5.1753     -0.00000
      4      12.6711      0.00000
      5      14.3572      0.00000

 k-point    17 :      -0.4000    0.0000    0.2000
  band No.  band energies     occupation 
      1      -2.2316      2.00000
      2       5.4261     -0.00000
      3       6.1703     -0.00000
      4      11.9981      0.00000
      5      17.0982      0.00000

 k-point    18 :      -0.2000    0.0000    0.2000
  band No.  band energies     occupation 
      1      -3.7104      2.00000
      2       7.2670     -0.00000
      3      10.7506      0.00000
      4      11.8117      0.00000
      5      12.0793      0.00000

 k-point    19 :       0.0000    0.2000    0.2000
  band No.  band energies     occupation 
      1      -3.2722      2.00000
      2       7.3206     -0.00000
      3      10.5063      0.00000
      4      10.9744      0.00000
      5      13.2653      0.00000

 k-point    20 :       0.2000    0.2000    0.2000
  band No.  band energies     occupation 
      1      -1.7717      2.00000
      2       6.2146     -0.00000
      3       7.7084     -0.00000
      4       9.9807      0.00000
      5      12.4147      0.00000

 k-point    21 :       0.4000    0.2000    0.2000
  band No.  band energies     occupation 
      1       1.0590      2.00000
      2       1.9746      2.00000
      3       6.3237     -0.00000
      4       9.3976      0.00000
      5      12.5636      0.00000

 k-point    22 :      -0.4000    0.2000    0.2000
  band No.  band energies     occupation 
      1      -1.5122      2.00000
      2       5.6651     -0.00000
      3       6.4608     -0.00000
      4       7.7255     -0.00000
      5      13.4528      0.00000

 k-point    23 :      -0.2000    0.2000    0.2000
  band No.  band energies     occupation 
      1      -3.1843      2.00000
      2       6.4727     -0.00000
      3       8.4573     -0.00000
      4      11.5811      0.00000
      5      14.7211      0.00000

 k-point    24 :       0.0000    0.4000    0.2000
  band No.  band energies     occupation 
      1      -1.7830      2.00000
      2       3.1534      2.00028
      3      10.6149      0.00000
      4      12.1911      0.00000
      5      13.7689      0.00000

 k-point    25 :       0.2000    0.4000    0.2000
  band No.  band energies     occupation 
      1      -0.4642      2.00000
      2       5.1914     -0.00000
      3       8.0851     -0.00000
      4       8.4768     -0.00000
      5      10.1363      0.00000

 k-point    26 :       0.4000    0.4000    0.2000
  band No.  band energies     occupation 
      1       2.3216      2.00000
      2       3.5701      1.99917
      3       5.7118     -0.00000
      4       7.6705     -0.00000
      5       9.4118      0.00000

 k-point    27 :      -0.4000    0.4000    0.2000
  band No.  band energies     occupation 
      1       0.2633      2.00000
      2       3.3349      2.01519
      3       6.8408     -0.00000
      4       8.1469     -0.00000
      5      10.6713      0.00000

 k-point    28 :      -0.2000    0.4000    0.2000
  band No.  band energies     occupation 
      1      -1.5351      2.00000
      2       2.5020      2.00000
      3       9.8647      0.00000
      4      12.0291      0.00000
      5      12.8553      0.00000

 k-point    29 :       0.0000   -0.4000    0.2000
  band No.  band energies     occupation 
      1      -0.8755      2.00000
      2       1.7107      2.00000
      3       9.0527     -0.00000
      4      11.5202      0.00000
      5      13.6337      0.00000

 k-point    30 :       0.2000   -0.4000    0.2000
  band No.  band energies     occupation 
      1       0.9674      2.00000
      2       2.9300      2.00000
      3       6.4721     -0.00000
      4       7.2108     -0.00000
      5      12.6254      0.00000

 k-point    31 :       0.4000   -0.4000    0.2000
  band No.  band energies     occupation 
      1       2.4829      2.00000
      2       4.1158     -0.02254
      3       5.4152     -0.00000
      4       6.4096     -0.00000
      5       8.3259     -0.00000

 k-point    32 :      -0.4000   -0.4000    0.2000
  band No.  band energies     occupation 
      1      -0.1158      2.00000
      2       3.9072     -0.00169
      3       6.8619     -0.00000
      4       8.4751     -0.00000
      5      11.0893      0.00000

 k-point    33 :      -0.2000   -0.4000    0.2000
  band No.  band energies     occupation 
      1      -1.2567      2.00000
      2       2.0639      2.00000
      3       8.9678     -0.00000
      4      12.3929      0.00000
      5      14.1611      0.00000

 k-point    34 :       0.0000   -0.2000    0.2000
  band No.  band energies     occupation 
      1      -2.7107      2.00000
      2       5.2970     -0.00000
      3       8.4226     -0.00000
      4      10.4448      0.00000
      5      12.3938      0.00000

 k-point    35 :       0.2000   -0.2000    0.2000
  band No.  band energies     occupation 
      1      -0.8305      2.00000
      2       4.9868     -0.00000
      3       6.2670     -0.00000
      4       6.5682     -0.00000
      5      16.0179      0.00000

 k-point    36 :       0.4000   -0.2000    0.2000
  band No.  band energies     occupation 
      1       1.0046      2.00000
      2       2.7013      2.00000
      3       5.0409     -0.00000
      4       8.6130     -0.00000
      5      12.2832      0.00000

 k-point    37 :      -0.4000   -0.2000    0.2000
  band No.  band energies     occupation 
      1      -1.7381      2.00000
      2       5.4790     -0.00000
      3       7.2146     -0.00000
      4       8.6241     -0.00000
      5      12.8177      0.00000

 k-point    38 :      -0.2000   -0.2000    0.2000
  band No.  band energies     occupation 
      1      -3.0170      2.00000
      2       5.8822     -0.00000
      3       7.7690     -0.00000
      4      11.9935      0.00000
      5      14.0963      0.00000

 k-point    39 :      -0.0000    0.0000    0.4000
  band No.  band energies     occupation 
      1      -1.0387      2.00000
      2       3.1851      2.00065
      3       8.7494     -0.00000
      4      10.0909      0.00000
      5      11.4987      0.00000

 k-point    40 :       0.2000    0.0000    0.4000
  band No.  band energies     occupation 
      1       1.0687      2.00000
      2       1.7304      2.00000
      3       4.5399     -0.00000
      4      12.3825      0.00000
      5      13.5532      0.00000

 k-point    41 :       0.4000   -0.0000    0.4000
  band No.  band energies     occupation 
      1       0.2944      2.00000
      2       1.4639      2.00000
      3       5.6542     -0.00000
      4      13.0697      0.00000
      5      15.1944      0.00000

 k-point    42 :      -0.4000    0.0000    0.4000
  band No.  band energies     occupation 
      1      -1.5036      2.00000
      2       2.3631      2.00000
      3      10.5397      0.00000
      4      11.5437      0.00000
      5      15.9121      0.00000

 k-point    43 :      -0.2000    0.0000    0.4000
  band No.  band energies     occupation 
      1      -2.0472      2.00000
      2       5.0054     -0.00000
      3       6.6374     -0.00000
      4      11.3136      0.00000
      5      14.6629      0.00000

 k-point    44 :       0.0000    0.2000    0.4000
  band No.  band energies     occupation 
      1      -0.9918      2.00000
      2       4.5176     -0.00000
      3       9.1081     -0.00000
      4       9.3925      0.00000
      5      11.1754      0.00000

 k-point    45 :       0.2000    0.2000    0.4000
  band No.  band energies     occupation 
      1       1.3123      2.00000
      2       2.5366      2.00000
      3       5.2751     -0.00000
      4       8.6956     -0.00000
      5      13.3410      0.00000

 k-point    46 :       0.4000    0.2000    0.4000
  band No.  band energies     occupation 
      1       1.0584      2.00000
      2       2.3226      2.00000
      3       5.2999     -0.00000
      4       8.8971     -0.00000
      5      11.1939      0.00000

 k-point    47 :      -0.4000    0.2000    0.4000
  band No.  band energies     occupation 
      1      -1.0561      2.00000
      2       3.1614      2.00035
      3       8.8074     -0.00000
      4      10.4703      0.00000
      5      11.6354      0.00000

 k-point    48 :      -0.2000    0.2000    0.4000
  band No.  band energies     occupation 
      1      -1.8042      2.00000
      2       5.6141     -0.00000
      3       7.8693     -0.00000
      4       9.6067      0.00000
      5      12.5517      0.00000

 k-point    49 :       0.0000    0.4000    0.4000
  band No.  band energies     occupation 
      1       0.2337      2.00000
      2       5.6814     -0.00000
      3       5.9886     -0.00000
      4       8.5672     -0.00000
      5      10.6230      0.00000

 k-point    50 :       0.2000    0.4000    0.4000
  band No.  band energies     occupation 
      1       2.3683      2.00000
      2       4.1020     -0.02737
      3       5.6605     -0.00000
      4       7.0303     -0.00000
      5      10.8406      0.00000

 k-point    51 :       0.4000    0.4000    0.4000
  band No.  band energies     occupation 
      1       2.8995      2.00000
      2       3.8581      0.16001
      3       5.0311     -0.00000
      4       6.4205     -0.00000
      5       7.6413     -0.00000

 k-point    52 :      -0.4000    0.4000    0.4000
  band No.  band energies     occupation 
      1       0.5310      2.00000
      2       4.4399     -0.00001
      3       5.1548     -0.00000
      4       8.0917     -0.00000
      5      11.0251      0.00000

 k-point    53 :      -0.2000    0.4000    0.4000
  band No.  band energies     occupation 
      1      -0.3924      2.00000
      2       4.7425     -0.00000
      3       7.4397     -0.00000
      4       8.5674     -0.00000
      5      10.6583      0.00000

 k-point    54 :       0.0000   -0.4000    0.4000
  band No.  band energies     occupation 
      1       1.8315      2.00000
      2       3.3686      2.02536
      3       4.2851     -0.00076
      4      10.3413      0.00000
      5      11.1988      0.00000

 k-point    55 :       0.2000   -0.4000    0.4000
  band No.  band energies     occupation 
      1       2.3401      2.00000
      2       4.2133     -0.00395
      3       5.6772     -0.00000
      4       6.6367     -0.00000
      5       9.3653      0.00000

 k-point    56 :       0.4000   -0.4000    0.4000
  band No.  band energies     occupation 
      1       2.2140      2.00000
      2       3.1599      2.00034
      3       6.1829     -0.00000
      4       7.8474     -0.00000
      5       8.8260     -0.00000

 k-point    57 :      -0.4000   -0.4000    0.4000
  band No.  band energies     occupation 
      1       1.0738      2.00000
      2       3.5719      1.99515
      3       4.5523     -0.00000
      4       9.1523     -0.00000
      5      13.2220      0.00000

 k-point    58 :      -0.2000   -0.4000    0.4000
  band No.  band energies     occupation 
      1       0.7597      2.00000
      2       2.9649      2.00000
      3       6.8621     -0.00000
      4       7.3214     -0.00000
      5      11.3467      0.00000

 k-point    59 :       0.0000   -0.2000    0.4000
  band No.  band energies     occupation 
      1       0.1028      2.00000
      2       2.9380      2.00000
      3       6.7396     -0.00000
      4       9.1426     -0.00000
      5      10.9756      0.00000

 k-point    60 :       0.2000   -0.2000    0.4000
  band No.  band energies     occupation 
      1       1.1888      2.00000
      2       2.8592      2.00000
      3       4.8761     -0.00000
      4       8.5136     -0.00000
      5      13.5450      0.00000

 k-point    61 :       0.4000   -0.2000    0.4000
  band No.  band energies     occupation 
      1       0.6928      2.00000
      2       1.7826      2.00000
      3       6.9742     -0.00000
      4      10.2164      0.00000
      5      12.4504      0.00000

 k-point    62 :      -0.4000   -0.2000    0.4000
  band No.  band energies     occupation 
      1      -0.7386      2.00000
      2       2.6905      2.00000
      3       7.7845     -0.00000
      4      10.5867      0.00000
      5      12.7160      0.00000

 k-point    63 :      -0.2000   -0.2000    0.4000
  band No.  band energies     occupation 
      1      -1.0838      2.00000
      2       5.2178     -0.00000
      3       6.2982     -0.00000
      4       6.8927     -0.00000
      5      15.0628      0.00000


--------------------------------------------------------------------------------------------------------


 soft charge-density along one line, spin component           1
         0         1         2         3         4         5         6         7         8         9
 total charge-density along one line
 
 pseudopotential strength for first ion, spin component:           1
  8.584  14.637   0.000  -0.000  -0.000   0.000  -0.000  -0.000
 14.637  24.959   0.000  -0.000  -0.000   0.000  -0.000  -0.000
  0.000   0.000   1.975  -0.000  -0.000   5.726  -0.001  -0.000
 -0.000  -0.000  -0.000   1.975  -0.000  -0.001   5.727  -0.000
 -0.000  -0.000  -0.000  -0.000   1.975  -0.000  -0.000   5.727
  0.000   0.000   5.726  -0.001  -0.000  16.500  -0.002  -0.001
 -0.000  -0.000  -0.001   5.727  -0.000  -0.002  16.501  -0.001
 -0.000  -0.000  -0.000  -0.000   5.727  -0.001  -0.001  16.501
 total augmentation occupancy for first ion, spin component:           1
  2.195  -0.280   0.000   0.000   0.000   0.000   0.000   0.000
 -0.280   0.100   0.000   0.000   0.000   0.000   0.000   0.000
  0.000   0.000   0.695   0.078   0.039  -0.032  -0.004  -0.002
  0.000   0.000   0.078   0.701   0.023  -0.004  -0.036  -0.002
  0.000   0.000   0.039   0.023   0.682  -0.002  -0.002  -0.035
  0.000   0.000  -0.032  -0.004  -0.002   0.002   0.000   0.000
  0.000   0.000  -0.004  -0.036  -0.002   0.000   0.002   0.000
  0.000   0.000  -0.002  -0.002  -0.035   0.000   0.000   0.002


------------------------ aborting loop because EDIFF is reached ----------------------------------------


 


 total charge     
 
# of ion       s       p       d       tot
------------------------------------------
    1        0.477   0.231   0.000   0.707
 
    CHARGE:  cpu time    0.0042: real time    0.0042
    FORLOC:  cpu time    0.0001: real time    0.0001
    FORNL :  cpu time    0.0013: real time    0.0013
    STRESS:  cpu time    0.0173: real time    0.0173
    FORCOR:  cpu time    0.0029: real time    0.0029
    FORHAR:  cpu time    0.0007: real time    0.0007
    MIXING:  cpu time    0.0002: real time    0.0002
    OFIELD:  cpu time    0.0000: real time    0.0000

  FORCE on cell =-STRESS in cart. coord.  units (eV):
  Direction    XX          YY          ZZ          XY          YZ          ZX
  --------------------------------------------------------------------------------------
  Alpha Z    -0.12883    -0.12883    -0.12883
  Ewald     -20.10613   -23.03660   -19.42218     0.73332     0.91410     0.67678
  Hartree     0.31279    -0.10132     0.35002     0.05089     0.03578     0.05102
  E(xc)      -7.67375    -7.69020    -7.68522    -0.01183    -0.02629    -0.00784
  Local      -3.14083    -0.33136    -3.96498    -0.91419    -1.30599    -0.77282
  n-local    18.51414    18.59807    18.68681     0.19218     0.39113     0.12068
  augment    -1.29419    -1.30650    -1.30012    -0.01262    -0.02790    -0.00597
  Kinetic    11.71350    12.12938    11.62535    -0.04933     0.01346    -0.03106
  Fock        0.00000     0.00000     0.00000     0.00000     0.00000     0.00000
  -------------------------------------------------------------------------------------
  Total      -1.80329    -1.86736    -1.83917    -0.01157    -0.00572     0.03080
  in kB    -110.81732  -114.75433  -113.02221    -0.71083    -0.35181     1.89250
  external pressure =     -112.86 kB  Pullay stress =        0.00 kB


 VOLUME and BASIS-vectors are now :
 -----------------------------------------------------------------------------
  energy-cutoff  :      400.00
  volume of cell :       26.07
      direct lattice vectors                 reciprocal lattice vectors
     3.053090157  0.269922644 -1.012016981     0.358863179 -0.015989716  0.090241227
     0.023533724  3.074168264  0.451120764    -0.032449469  0.327102602 -0.010650766
    -0.765146990  0.023305146  3.046896996     0.123999683 -0.053741443  0.359753033

  length of vectors
     3.227754035  3.107181085  3.141587871     0.370380793  0.328880707  0.384299764


 FORCES acting on ions
    electron-ion (+dipol)            ewald-force                    non-local-force                 convergence-correction
 -----------------------------------------------------------------------------------------------
   0.130E-05 -.995E-05 0.638E-07   -.295E-16 0.112E-15 0.363E-16   0.000E+00 -.993E-23 0.000E+00   -.128E-09 0.477E-09 -.855E-10
 -----------------------------------------------------------------------------------------------
   0.130E-05 -.995E-05 0.638E-07   -.295E-16 0.112E-15 0.363E-16   0.000E+00 -.993E-23 0.000E+00   -.128E-09 0.477E-09 -.855E-10
 
 
 POSITION                                       TOTAL-FORCE (eV/Angst)
 -----------------------------------------------------------------------------------
      2.11552      1.55832      2.09944        -0.000000     -0.000000      0.000000
 -----------------------------------------------------------------------------------
    total drift:                                0.000001     -0.000010      0.000000


--------------------------------------------------------------------------------------------------------



  FREE ENERGIE OF THE ION-ELECTRON SYSTEM (eV)
  ---------------------------------------------------
  free  energy   TOTEN  =        -3.30505086 eV

  energy  without entropy=       -3.30568125  energy(sigma->0) =       -3.30526099
 
 d Force = 0.0000000E+00[ 0.000E+00, 0.000E+00]  d Energy = 0.1668938E-02-0.167E-02
 d Force = 0.0000000E+00[ 0.000E+00, 0.000E+00]  d Ewald  =-0.2295798E-01 0.230E-01


--------------------------------------------------------------------------------------------------------


    POTLOK:  cpu time    0.0039: real time    0.0039


--------------------------------------------------------------------------------------------------------




--------------------------------------------------------------------------------------------------------


  
 reached required accuracy - stopping structural energy minimisation
 writing wavefunctions
     LOOP+:  cpu time    0.2017: real time    0.2070
    4ORBIT:  cpu time    0.0000: real time    0.0000
 


 total charge     
 
# of ion       s       p       d       tot
------------------------------------------
    1        0.477   0.231   0.000   0.707
 

 total amount of memory used by VASP MPI-rank0    31235. kBytes
=======================================================================

   base      :      30000. kBytes
   nonl-proj :        506. kBytes
   fftplans  :        246. kBytes
   grid      :        344. kBytes
   one-center:          3. kBytes
   wavefun   :        136. kBytes
 
  
  
 General timing and accounting informations for this job:
 ========================================================
  
                  Total CPU time used (sec):        3.470
                            User time (sec):        3.302
                          System time (sec):        0.168
                         Elapsed time (sec):        4.056
  
                   Maximum memory used (kb):      118760.
                   Average memory used (kb):           0.
  
                          Minor page faults:        12122
                          Major page faults:         2471
                 Voluntary context switches:         2569
