 vasp.5.4.4.18Apr17-6-g9f103f2a35 (build Feb 19 2020 16:12:31) complex          
  
 executed on             LinuxIFC date 2024.06.07  02:12:16
 running on   40 total cores
 distrk:  each k-point on   20 cores,    2 groups
 distr:  one band on NCORES_PER_BAND=   4 cores,    5 groups


--------------------------------------------------------------------------------------------------------


 INCAR:
 POTCAR:    PAW_PBE Al 04Jan2001                  

 ----------------------------------------------------------------------------- 
|                                                                             |
|           W    W    AA    RRRRR   N    N  II  N    N   GGGG   !!!           |
|           W    W   A  A   R    R  NN   N  II  NN   N  G    G  !!!           |
|           W    W  A    A  R    R  N N  N  II  N N  N  G       !!!           |
|           W WW W  AAAAAA  RRRRR   N  N N  II  N  N N  G  GGG   !            |
|           WW  WW  A    A  R   R   N   NN  II  N   NN  G    G                |
|           W    W  A    A  R    R  N    N  II  N    N   GGGG   !!!           |
|                                                                             |
|      You have enabled k-point parallelism (KPAR>1).                         |
|      This developmental code was originally  written by Paul Kent at ORNL,  |
|      and carefully double checked in Vienna.                                |
|      GW as well as linear response parallelism added by Martijn Marsman     |
|      and Georg Kresse.                                                      |
|      Carefully verify results versus KPAR=1.                                |
|      Report problems to Paul Kent and Vienna.                               |
|                                                                             |
 ----------------------------------------------------------------------------- 

 POTCAR:    PAW_PBE Al 04Jan2001                  
   VRHFIN =Al: s2p1                                                             
   LEXCH  = PE                                                                  
   EATOM  =    53.5387 eV,    3.9350 Ry                                         
                                                                                
   TITEL  = PAW_PBE Al 04Jan2001                                                
   LULTRA =        F    use ultrasoft PP ?                                      
   IUNSCR =        1    unscreen: 0-lin 1-nonlin 2-no                           
   RPACOR =    1.500    partial core radius                                     
   POMASS =   26.981; ZVAL   =    3.000    mass and valenz                      
   RCORE  =    1.900    outmost cutoff radius                                   
   RWIGS  =    2.650; RWIGS  =    1.402    wigner-seitz radius (au A)           
   ENMAX  =  240.300; ENMIN  =  180.225 eV                                      
   ICORE  =        2    local potential                                         
   LCOR   =        T    correct aug charges                                     
   LPAW   =        T    paw PP                                                  
   EAUG   =  291.052                                                            
   DEXC   =    0.000                                                            
   RMAX   =    1.939    core radius for proj-oper                               
   RAUG   =    1.300    factor for augmentation sphere                          
   RDEP   =    1.966    radius for radial grids                                 
   RDEPT  =    1.856    core radius for aug-charge                              
                                                                                
   Atomic configuration                                                         
    6 entries                                                                   
     n  l   j            E        occ.                                          
     1  0  0.50     -1511.1048   2.0000                                         
     2  0  0.50      -108.1629   2.0000                                         
     2  1  1.50       -69.6402   6.0000                                         
     3  0  0.50        -7.7528   2.0000                                         
     3  1  1.50        -2.7121   1.0000                                         
     3  2  2.50        -2.7212   0.0000                                         
   Description                                                                  
     l       E           TYP  RCUT    TYP  RCUT                                 
     0     -7.7528455     23  1.900                                             
     0     -3.3096929     23  1.900                                             
     1     -2.7120682     23  1.900                                             
     1     13.6058260     23  1.900                                             
     2     -2.7211652      7  1.900                                             
  local pseudopotential read in
  partial core-charges read in
  partial kinetic energy density read in
  atomic valenz-charges read in
  non local Contribution for L=           0  read in
    real space projection operators read in
  non local Contribution for L=           0  read in
    real space projection operators read in
  non local Contribution for L=           1  read in
    real space projection operators read in
  non local Contribution for L=           1  read in
    real space projection operators read in
    PAW grid and wavefunctions read in
 
   number of l-projection  operators is LMAX  =           4
   number of lm-projection operators is LMMAX =           8
 
  PAW_PBE Al 04Jan2001                  :
 energy of atom  1       EATOM=  -53.5387
 kinetic energy error for atom=    0.0005 (will be added to EATOM!!)
 
 
 POSCAR: Al1                                     
  positions in direct lattice
  No initial velocities read in
 exchange correlation table for  LEXCH =        8
   RHO(1)=    0.500       N(1)  =     2000
   RHO(2)=  100.500       N(2)  =     4000
 


--------------------------------------------------------------------------------------------------------


 ion  position               nearest neighbor table
   1  0.924  0.419  0.934-
 
  LATTYP: Found a triclinic cell.
 ALAT       =     7.8656552525
 B/A-ratio  =     1.0722042122
 C/A-ratio  =     1.2229888514
 COS(alpha) =     0.0079254945
 COS(beta)  =     0.4487990368
 COS(gamma) =     0.8962270990
  
  Lattice vectors:
  
 A1 = (  -4.7298753820,   2.4723699660,  -5.7779060370)
 A2 = (  -2.3649376910,   5.3742921540,  -6.0538807230)
 A3 = (  -7.0948130730,  -5.9470284500,  -2.6140679560)


Analysis of symmetry for initial positions (statically):
=====================================================================
 Subroutine PRICEL returns:
 Original cell was already a primitive cell.
 

 Routine SETGRP: Setting up the symmetry group for a 
 triclinic supercell.


 Subroutine GETGRP returns: Found  2 space group operations
 (whereof  1 operations were pure point group operations)
 out of a pool of  2 trial point group operations.


The static configuration has the point symmetry C_1 .
 The point group associated with its full space group is S_2 .


Analysis of symmetry for dynamics (positions and initial velocities):
=====================================================================
 Subroutine PRICEL returns:
 Original cell was already a primitive cell.
 

 Routine SETGRP: Setting up the symmetry group for a 
 triclinic supercell.


 Subroutine GETGRP returns: Found  2 space group operations
 (whereof  1 operations were pure point group operations)
 out of a pool of  2 trial point group operations.


The dynamic configuration has the point symmetry C_1 .
 The point group associated with its full space group is S_2 .


 Subroutine INISYM returns: Found  2 space group operations
 (whereof  1 operations are pure point group operations),
 and found     1 'primitive' translations

 
 

Automatic generation of k-mesh.
 generate k-points for:    6    5    4
Space group operators:
 irot       det(A)        alpha          n_x          n_y          n_z        tau_x        tau_y        tau_z
    1     1.000000     0.000000     1.000000     0.000000     0.000000     0.000000     0.000000     0.000000
    2    -1.000000     0.000000     1.000000     0.000000     0.000000    -2.152560     0.837447    -2.132285
 
 Subroutine IBZKPT returns following result:
 ===========================================
 
 Found     62 irreducible k-points:
 
 Following reciprocal coordinates:
            Coordinates               Weight
  0.000000  0.000000  0.000000      1.000000
  0.166667  0.000000  0.000000      2.000000
  0.333333  0.000000  0.000000      2.000000
  0.500000  0.000000  0.000000      1.000000
  0.000000  0.200000  0.000000      2.000000
  0.166667  0.200000  0.000000      2.000000
  0.333333  0.200000  0.000000      2.000000
  0.500000  0.200000  0.000000      2.000000
 -0.333333  0.200000  0.000000      2.000000
 -0.166667  0.200000  0.000000      2.000000
  0.000000  0.400000  0.000000      2.000000
  0.166667  0.400000  0.000000      2.000000
  0.333333  0.400000  0.000000      2.000000
  0.500000  0.400000  0.000000      2.000000
 -0.333333  0.400000  0.000000      2.000000
 -0.166667  0.400000  0.000000      2.000000
  0.000000  0.000000  0.250000      2.000000
  0.166667  0.000000  0.250000      2.000000
  0.333333  0.000000  0.250000      2.000000
  0.500000  0.000000  0.250000      2.000000
 -0.333333  0.000000  0.250000      2.000000
 -0.166667  0.000000  0.250000      2.000000
  0.000000  0.200000  0.250000      2.000000
  0.166667  0.200000  0.250000      2.000000
  0.333333  0.200000  0.250000      2.000000
  0.500000  0.200000  0.250000      2.000000
 -0.333333  0.200000  0.250000      2.000000
 -0.166667  0.200000  0.250000      2.000000
  0.000000  0.400000  0.250000      2.000000
  0.166667  0.400000  0.250000      2.000000
  0.333333  0.400000  0.250000      2.000000
  0.500000  0.400000  0.250000      2.000000
 -0.333333  0.400000  0.250000      2.000000
 -0.166667  0.400000  0.250000      2.000000
 -0.000000 -0.400000  0.250000      2.000000
  0.166667 -0.400000  0.250000      2.000000
  0.333333 -0.400000  0.250000      2.000000
  0.500000 -0.400000  0.250000      2.000000
 -0.333333 -0.400000  0.250000      2.000000
 -0.166667 -0.400000  0.250000      2.000000
 -0.000000 -0.200000  0.250000      2.000000
  0.166667 -0.200000  0.250000      2.000000
  0.333333 -0.200000  0.250000      2.000000
  0.500000 -0.200000  0.250000      2.000000
 -0.333333 -0.200000  0.250000      2.000000
 -0.166667 -0.200000  0.250000      2.000000
  0.000000  0.000000  0.500000      1.000000
  0.166667  0.000000  0.500000      2.000000
  0.333333  0.000000  0.500000      2.000000
  0.500000  0.000000  0.500000      1.000000
  0.000000  0.200000  0.500000      2.000000
  0.166667  0.200000  0.500000      2.000000
  0.333333  0.200000  0.500000      2.000000
  0.500000  0.200000  0.500000      2.000000
 -0.333333  0.200000  0.500000      2.000000
 -0.166667  0.200000  0.500000      2.000000
  0.000000  0.400000  0.500000      2.000000
  0.166667  0.400000  0.500000      2.000000
  0.333333  0.400000  0.500000      2.000000
  0.500000  0.400000  0.500000      2.000000
 -0.333333  0.400000  0.500000      2.000000
 -0.166667  0.400000  0.500000      2.000000
 
 Following cartesian coordinates:
            Coordinates               Weight
  0.000000  0.000000  0.000000      1.000000
  0.070474  0.000000  0.000000      2.000000
  0.140948  0.000000  0.000000      2.000000
  0.211422  0.000000  0.000000      1.000000
 -0.004389  0.072497  0.000000      2.000000
  0.066085  0.072497  0.000000      2.000000
  0.136559  0.072497  0.000000      2.000000
  0.207033  0.072497  0.000000      2.000000
 -0.145337  0.072497  0.000000      2.000000
 -0.074863  0.072497  0.000000      2.000000
 -0.008779  0.144994  0.000000      2.000000
  0.061695  0.144994  0.000000      2.000000
  0.132169  0.144994  0.000000      2.000000
  0.202643  0.144994  0.000000      2.000000
 -0.149727  0.144994  0.000000      2.000000
 -0.079253  0.144994  0.000000      2.000000
  0.022720 -0.012566  0.062561      2.000000
  0.093194 -0.012566  0.062561      2.000000
  0.163668 -0.012566  0.062561      2.000000
  0.234142 -0.012566  0.062561      2.000000
 -0.118228 -0.012566  0.062561      2.000000
 -0.047754 -0.012566  0.062561      2.000000
  0.018331  0.059931  0.062561      2.000000
  0.088805  0.059931  0.062561      2.000000
  0.159279  0.059931  0.062561      2.000000
  0.229753  0.059931  0.062561      2.000000
 -0.122617  0.059931  0.062561      2.000000
 -0.052143  0.059931  0.062561      2.000000
  0.013941  0.132428  0.062561      2.000000
  0.084415  0.132428  0.062561      2.000000
  0.154889  0.132428  0.062561      2.000000
  0.225363  0.132428  0.062561      2.000000
 -0.127007  0.132428  0.062561      2.000000
 -0.056533  0.132428  0.062561      2.000000
  0.031498 -0.157560  0.062561      2.000000
  0.101972 -0.157560  0.062561      2.000000
  0.172447 -0.157560  0.062561      2.000000
  0.242921 -0.157560  0.062561      2.000000
 -0.109450 -0.157560  0.062561      2.000000
 -0.038976 -0.157560  0.062561      2.000000
  0.027109 -0.085063  0.062561      2.000000
  0.097583 -0.085063  0.062561      2.000000
  0.168057 -0.085063  0.062561      2.000000
  0.238531 -0.085063  0.062561      2.000000
 -0.113839 -0.085063  0.062561      2.000000
 -0.043365 -0.085063  0.062561      2.000000
  0.045440 -0.025132  0.125121      1.000000
  0.115914 -0.025132  0.125121      2.000000
  0.186388 -0.025132  0.125121      2.000000
  0.256862 -0.025132  0.125121      1.000000
  0.041050  0.047365  0.125121      2.000000
  0.111524  0.047365  0.125121      2.000000
  0.181999  0.047365  0.125121      2.000000
  0.252473  0.047365  0.125121      2.000000
 -0.099898  0.047365  0.125121      2.000000
 -0.029424  0.047365  0.125121      2.000000
  0.036661  0.119862  0.125121      2.000000
  0.107135  0.119862  0.125121      2.000000
  0.177609  0.119862  0.125121      2.000000
  0.248083  0.119862  0.125121      2.000000
 -0.104287  0.119862  0.125121      2.000000
 -0.033813  0.119862  0.125121      2.000000
 


--------------------------------------------------------------------------------------------------------




 Dimension of arrays:
   k-points           NKPTS =     62   k-points in BZ     NKDIM =     62   number of bands    NBANDS=      5
   number of dos      NEDOS =    301   number of ions     NIONS =      1
   non local maximal  LDIM  =      4   non local SUM 2l+1 LMDIM =      8
   total plane-waves  NPLWV =   8064
   max r-space proj   IRMAX =      1   max aug-charges    IRDMAX=  12236
   dimension x,y,z NGX =    16 NGY =   18 NGZ =   28
   dimension x,y,z NGXF=    32 NGYF=   36 NGZF=   56
   support grid    NGXF=    32 NGYF=   36 NGZF=   56
   ions per type =               1
   NGX,Y,Z   is equivalent  to a cutoff of  10.60, 10.63, 11.65 a.u.
   NGXF,Y,Z  is equivalent  to a cutoff of  21.19, 21.27, 23.30 a.u.

 SYSTEM =  Isif_5_isif_7_pyxtal_struct_0           
 POSCAR =  Al1                                     

 Startparameter for this run:
   NWRITE =      2    write-flag & timer
   PREC   = accura    normal or accurate (medium, high low for compatibility)
   ISTART =      0    job   : 0-new  1-cont  2-samecut
   ICHARG =      2    charge: 1-file 2-atom 10-const
   ISPIN  =      1    spin polarized calculation?
   LNONCOLLINEAR =      F non collinear calculations
   LSORBIT =      F    spin-orbit coupling
   INIWAV =      1    electr: 0-lowe 1-rand  2-diag
   LASPH  =      F    aspherical Exc in radial PAW
   METAGGA=      F    non-selfconsistent MetaGGA calc.

 Electronic Relaxation 1
   ENCUT  =  400.0 eV  29.40 Ry    5.42 a.u.   4.09  4.59  6.52*2*pi/ulx,y,z
   ENINI  =  400.0     initial cutoff
   ENAUG  =  291.1 eV  augmentation charge cutoff
   NELM   =    240;   NELMIN=  2; NELMDL=-12     # of ELM steps 
   EDIFF  = 0.1E-04   stopping-criterion for ELM
   LREAL  =      F    real-space projection
   NLSPLINE    = F    spline interpolate recip. space projectors
   LCOMPAT=      F    compatible to vasp.4.4
   GGA_COMPAT  = T    GGA compatible to vasp.4.4-vasp.4.6
   LMAXPAW     = -100 max onsite density
   LMAXMIX     =    2 max onsite mixed and CHGCAR
   VOSKOWN=      0    Vosko Wilk Nusair interpolation
   ROPT   =    0.00000
 Ionic relaxation
   EDIFFG = -.1E-01   stopping-criterion for IOM
   NSW    =    200    number of steps for IOM
   NBLOCK =      1;   KBLOCK =    200    inner block; outer block 
   IBRION =      2    ionic relax: 0-MD 1-quasi-New 2-CG
   NFREE  =      1    steps in history (QN), initial steepest desc. (CG)
   ISIF   =      5    stress and relaxation
   IWAVPR =     11    prediction:  0-non 1-charg 2-wave 3-comb
   ISYM   =      2    0-nonsym 1-usesym 2-fastsym
   LCORR  =      T    Harris-Foulkes like correction to forces

   POTIM  = 0.5000    time-step for ionic-motion
   TEIN   =    0.0    initial temperature
   TEBEG  =    0.0;   TEEND  =   0.0 temperature during run
   SMASS  =  -3.00    Nose mass-parameter (am)
   estimated Nose-frequenzy (Omega)   =  0.10E-29 period in steps =****** mass=  -0.144E-27a.u.
   SCALEE = 1.0000    scale energy and forces
   NPACO  =    256;   APACO  = 16.0  distance and # of slots for P.C.
   PSTRESS=    0.0 pullay stress

  Mass of Ions in am
   POMASS =  26.98
  Ionic Valenz
   ZVAL   =   3.00
  Atomic Wigner-Seitz radii
   RWIGS  =  -1.00
  virtual crystal weights 
   VCA    =   1.00
   NELECT =       3.0000    total number of electrons
   NUPDOWN=      -1.0000    fix difference up-down

 DOS related values:
   EMIN   =  10.00;   EMAX   =-10.00  energy-range for DOS
   EFERMI =   0.00
   ISMEAR =     1;   SIGMA  =   0.20  broadening in eV -4-tet -1-fermi 0-gaus

 Electronic relaxation 2 (details)
   IALGO  =     48    algorithm
   LDIAG  =      T    sub-space diagonalisation (order eigenvalues)
   LSUBROT=      F    optimize rotation matrix (better conditioning)
   TURBO    =      0    0=normal 1=particle mesh
   IRESTART =      0    0=no restart 2=restart with 2 vectors
   NREBOOT  =      0    no. of reboots
   NMIN     =      0    reboot dimension
   EREF     =   0.00    reference energy to select bands
   IMIX   =      4    mixing-type and parameters
     AMIX     =   0.40;   BMIX     =  1.00
     AMIX_MAG =   1.60;   BMIX_MAG =  1.00
     AMIN     =   0.10
     WC   =   100.;   INIMIX=   1;  MIXPRE=   1;  MAXMIX= -45

 Intra band minimization:
   WEIMIN = 0.0010     energy-eigenvalue tresh-hold
   EBREAK =  0.50E-06  absolut break condition
   DEPER  =   0.30     relativ break condition  

   TIME   =   0.40     timestep for ELM

  volume/ion in A,a.u.               =      26.07       175.94
  Fermi-wavevector in a.u.,A,eV,Ry     =   0.796268  1.504727  8.626664  0.634042
  Thomas-Fermi vector in A             =   1.902757
 
 Write flags
   LWAVE        =      T    write WAVECAR
   LDOWNSAMPLE  =      F    k-point downsampling of WAVECAR
   LCHARG       =      T    write CHGCAR
   LVTOT        =      F    write LOCPOT, total local potential
   LVHAR        =      F    write LOCPOT, Hartree potential only
   LELF         =      F    write electronic localiz. function (ELF)
   LORBIT       =     10    0 simple, 1 ext, 2 COOP (PROOUT), +10 PAW based schemes


 Dipole corrections
   LMONO  =      F    monopole corrections only (constant potential shift)
   LDIPOL =      F    correct potential (dipole corrections)
   IDIPOL =      0    1-x, 2-y, 3-z, 4-all directions 
   EPSILON=  1.0000000 bulk dielectric constant

 Exchange correlation treatment:
   GGA     =    PE    GGA type
   LEXCH   =     8    internal setting for exchange type
   VOSKOWN=      0    Vosko Wilk Nusair interpolation
   LHFCALC =     F    Hartree Fock is set to
   LHFONE  =     F    Hartree Fock one center treatment
   AEXX    =    0.0000 exact exchange contribution

 Linear response parameters
   LEPSILON=     F    determine dielectric tensor
   LRPA    =     F    only Hartree local field effects (RPA)
   LNABLA  =     F    use nabla operator in PAW spheres
   LVEL    =     F    velocity operator in full k-point grid
   LINTERFAST=   F  fast interpolation
   KINTER  =     0    interpolate to denser k-point grid
   CSHIFT  =0.1000    complex shift for real part using Kramers Kronig
   OMEGAMAX=  -1.0    maximum frequency
   DEG_THRESHOLD= 0.2000000E-02 threshold for treating states as degnerate
   RTIME   =   -0.100 relaxation time in fs
  (WPLASMAI=    0.000 imaginary part of plasma frequency in eV, 0.658/RTIME)
   DFIELD  = 0.0000000 0.0000000 0.0000000 field for delta impulse in time
 
 Orbital magnetization related:
   ORBITALMAG=     F  switch on orbital magnetization
   LCHIMAG   =     F  perturbation theory with respect to B field
   DQ        =  0.001000  dq finite difference perturbation B field
   LLRAUG    =     F  two centre corrections for induced B field



--------------------------------------------------------------------------------------------------------


 conjugate gradient relaxation of ions
 charge density and potential will be updated during run
 non-spin polarized calculation
 RMM-DIIS sequential band-by-band
 perform sub-space diagonalisation
    before iterative eigenvector-optimisation
 modified Broyden-mixing scheme, WC =      100.0
 initial mixing is a Kerker type mixing with AMIX =  0.4000 and BMIX =      1.0000
 Hartree-type preconditioning will be used
 using additional bands            3
 reciprocal scheme for non local part
 use partial core corrections
 calculate Harris-corrections to forces 
   (improved forces if not selfconsistent)
 use gradient corrections 
 use of overlap-Matrix (Vanderbilt PP)
 Methfessel and Paxton  Order N= 1 SIGMA  =   0.20


--------------------------------------------------------------------------------------------------------


  energy-cutoff  :      400.00
  volume of cell :       26.07
      direct lattice vectors                 reciprocal lattice vectors
     2.364937691  0.143184074 -0.830103305     0.422844121  0.000000000  0.000000000
     0.000000000  2.758738114  0.554128619    -0.021946463  0.362484570  0.000000000
     0.000000000  0.000000000  3.996120633     0.090879505 -0.050264517  0.250242696

  length of vectors
     2.510478731  2.813839816  3.996120633     0.422844121  0.363148332  0.270937286


 
 k-points in units of 2pi/SCALE and weight: read from INCAR                         
   0.00000000  0.00000000  0.00000000       0.008
   0.07047402  0.00000000  0.00000000       0.017
   0.14094804  0.00000000  0.00000000       0.017
   0.21142206  0.00000000  0.00000000       0.008
  -0.00438929  0.07249691  0.00000000       0.017
   0.06608473  0.07249691  0.00000000       0.017
   0.13655875  0.07249691  0.00000000       0.017
   0.20703277  0.07249691  0.00000000       0.017
  -0.14533733  0.07249691  0.00000000       0.017
  -0.07486331  0.07249691  0.00000000       0.017
  -0.00877859  0.14499383  0.00000000       0.017
   0.06169544  0.14499383  0.00000000       0.017
   0.13216946  0.14499383  0.00000000       0.017
   0.20264348  0.14499383  0.00000000       0.017
  -0.14972663  0.14499383  0.00000000       0.017
  -0.07925261  0.14499383  0.00000000       0.017
   0.02271988 -0.01256613  0.06256067       0.017
   0.09319390 -0.01256613  0.06256067       0.017
   0.16366792 -0.01256613  0.06256067       0.017
   0.23414194 -0.01256613  0.06256067       0.017
  -0.11822816 -0.01256613  0.06256067       0.017
  -0.04775414 -0.01256613  0.06256067       0.017
   0.01833058  0.05993078  0.06256067       0.017
   0.08880460  0.05993078  0.06256067       0.017
   0.15927862  0.05993078  0.06256067       0.017
   0.22975264  0.05993078  0.06256067       0.017
  -0.12261746  0.05993078  0.06256067       0.017
  -0.05214344  0.05993078  0.06256067       0.017
   0.01394129  0.13242770  0.06256067       0.017
   0.08441531  0.13242770  0.06256067       0.017
   0.15488933  0.13242770  0.06256067       0.017
   0.22536335  0.13242770  0.06256067       0.017
  -0.12700675  0.13242770  0.06256067       0.017
  -0.05653273  0.13242770  0.06256067       0.017
   0.03149846 -0.15755996  0.06256067       0.017
   0.10197248 -0.15755996  0.06256067       0.017
   0.17244650 -0.15755996  0.06256067       0.017
   0.24292052 -0.15755996  0.06256067       0.017
  -0.10944958 -0.15755996  0.06256067       0.017
  -0.03897556 -0.15755996  0.06256067       0.017
   0.02710917 -0.08506304  0.06256067       0.017
   0.09758319 -0.08506304  0.06256067       0.017
   0.16805721 -0.08506304  0.06256067       0.017
   0.23853123 -0.08506304  0.06256067       0.017
  -0.11383887 -0.08506304  0.06256067       0.017
  -0.04336485 -0.08506304  0.06256067       0.017
   0.04543975 -0.02513226  0.12512135       0.008
   0.11591377 -0.02513226  0.12512135       0.017
   0.18638779 -0.02513226  0.12512135       0.017
   0.25686181 -0.02513226  0.12512135       0.008
   0.04105046  0.04736466  0.12512135       0.017
   0.11152448  0.04736466  0.12512135       0.017
   0.18199850  0.04736466  0.12512135       0.017
   0.25247252  0.04736466  0.12512135       0.017
  -0.09989758  0.04736466  0.12512135       0.017
  -0.02942356  0.04736466  0.12512135       0.017
   0.03666117  0.11986157  0.12512135       0.017
   0.10713519  0.11986157  0.12512135       0.017
   0.17760921  0.11986157  0.12512135       0.017
   0.24808323  0.11986157  0.12512135       0.017
  -0.10428687  0.11986157  0.12512135       0.017
  -0.03381285  0.11986157  0.12512135       0.017
 
 k-points in reciprocal lattice and weights: read from INCAR                         
   0.00000000  0.00000000  0.00000000       0.008
   0.16666667  0.00000000  0.00000000       0.017
   0.33333333  0.00000000  0.00000000       0.017
   0.50000000  0.00000000  0.00000000       0.008
   0.00000000  0.20000000  0.00000000       0.017
   0.16666667  0.20000000  0.00000000       0.017
   0.33333333  0.20000000  0.00000000       0.017
   0.50000000  0.20000000  0.00000000       0.017
  -0.33333333  0.20000000  0.00000000       0.017
  -0.16666667  0.20000000  0.00000000       0.017
   0.00000000  0.40000000  0.00000000       0.017
   0.16666667  0.40000000  0.00000000       0.017
   0.33333333  0.40000000  0.00000000       0.017
   0.50000000  0.40000000  0.00000000       0.017
  -0.33333333  0.40000000  0.00000000       0.017
  -0.16666667  0.40000000  0.00000000       0.017
   0.00000000  0.00000000  0.25000000       0.017
   0.16666667  0.00000000  0.25000000       0.017
   0.33333333  0.00000000  0.25000000       0.017
   0.50000000  0.00000000  0.25000000       0.017
  -0.33333333  0.00000000  0.25000000       0.017
  -0.16666667  0.00000000  0.25000000       0.017
   0.00000000  0.20000000  0.25000000       0.017
   0.16666667  0.20000000  0.25000000       0.017
   0.33333333  0.20000000  0.25000000       0.017
   0.50000000  0.20000000  0.25000000       0.017
  -0.33333333  0.20000000  0.25000000       0.017
  -0.16666667  0.20000000  0.25000000       0.017
   0.00000000  0.40000000  0.25000000       0.017
   0.16666667  0.40000000  0.25000000       0.017
   0.33333333  0.40000000  0.25000000       0.017
   0.50000000  0.40000000  0.25000000       0.017
  -0.33333333  0.40000000  0.25000000       0.017
  -0.16666667  0.40000000  0.25000000       0.017
  -0.00000000 -0.40000000  0.25000000       0.017
   0.16666667 -0.40000000  0.25000000       0.017
   0.33333333 -0.40000000  0.25000000       0.017
   0.50000000 -0.40000000  0.25000000       0.017
  -0.33333333 -0.40000000  0.25000000       0.017
  -0.16666667 -0.40000000  0.25000000       0.017
  -0.00000000 -0.20000000  0.25000000       0.017
   0.16666667 -0.20000000  0.25000000       0.017
   0.33333333 -0.20000000  0.25000000       0.017
   0.50000000 -0.20000000  0.25000000       0.017
  -0.33333333 -0.20000000  0.25000000       0.017
  -0.16666667 -0.20000000  0.25000000       0.017
   0.00000000  0.00000000  0.50000000       0.008
   0.16666667  0.00000000  0.50000000       0.017
   0.33333333  0.00000000  0.50000000       0.017
   0.50000000  0.00000000  0.50000000       0.008
   0.00000000  0.20000000  0.50000000       0.017
   0.16666667  0.20000000  0.50000000       0.017
   0.33333333  0.20000000  0.50000000       0.017
   0.50000000  0.20000000  0.50000000       0.017
  -0.33333333  0.20000000  0.50000000       0.017
  -0.16666667  0.20000000  0.50000000       0.017
   0.00000000  0.40000000  0.50000000       0.017
   0.16666667  0.40000000  0.50000000       0.017
   0.33333333  0.40000000  0.50000000       0.017
   0.50000000  0.40000000  0.50000000       0.017
  -0.33333333  0.40000000  0.50000000       0.017
  -0.16666667  0.40000000  0.50000000       0.017
 
 position of ions in fractional coordinates (direct lattice) 
   0.92371990  0.41872333  0.93385728
 
 position of ions in cartesian coordinates  (Angst):
   2.18454000  1.28741000  3.19705000
 


--------------------------------------------------------------------------------------------------------


 k-point  1 :   0.0000 0.0000 0.0000  plane waves:     471
 k-point  2 :   0.1667 0.0000 0.0000  plane waves:     471
 k-point  3 :   0.3333 0.0000 0.0000  plane waves:     476
 k-point  4 :   0.5000 0.0000 0.0000  plane waves:     486
 k-point  5 :   0.0000 0.2000 0.0000  plane waves:     475
 k-point  6 :   0.1667 0.2000 0.0000  plane waves:     477
 k-point  7 :   0.3333 0.2000 0.0000  plane waves:     476
 k-point  8 :   0.5000 0.2000 0.0000  plane waves:     479
 k-point  9 :  -0.3333 0.2000 0.0000  plane waves:     476
 k-point 10 :  -0.1667 0.2000 0.0000  plane waves:     477
 k-point 11 :   0.0000 0.4000 0.0000  plane waves:     472
 k-point 12 :   0.1667 0.4000 0.0000  plane waves:     470
 k-point 13 :   0.3333 0.4000 0.0000  plane waves:     476
 k-point 14 :   0.5000 0.4000 0.0000  plane waves:     472
 k-point 15 :  -0.3333 0.4000 0.0000  plane waves:     474
 k-point 16 :  -0.1667 0.4000 0.0000  plane waves:     471
 k-point 17 :   0.0000 0.0000 0.2500  plane waves:     465
 k-point 18 :   0.1667 0.0000 0.2500  plane waves:     475
 k-point 19 :   0.3333 0.0000 0.2500  plane waves:     478
 k-point 20 :   0.5000 0.0000 0.2500  plane waves:     481
 k-point 21 :  -0.3333 0.0000 0.2500  plane waves:     477
 k-point 22 :  -0.1667 0.0000 0.2500  plane waves:     474
 k-point 23 :   0.0000 0.2000 0.2500  plane waves:     475
 k-point 24 :   0.1667 0.2000 0.2500  plane waves:     470
 k-point 25 :   0.3333 0.2000 0.2500  plane waves:     473
 k-point 26 :   0.5000 0.2000 0.2500  plane waves:     481
 k-point 27 :  -0.3333 0.2000 0.2500  plane waves:     479
 k-point 28 :  -0.1667 0.2000 0.2500  plane waves:     477
 k-point 29 :   0.0000 0.4000 0.2500  plane waves:     469
 k-point 30 :   0.1667 0.4000 0.2500  plane waves:     463
 k-point 31 :   0.3333 0.4000 0.2500  plane waves:     474
 k-point 32 :   0.5000 0.4000 0.2500  plane waves:     471
 k-point 33 :  -0.3333 0.4000 0.2500  plane waves:     473
 k-point 34 :  -0.1667 0.4000 0.2500  plane waves:     467
 k-point 35 :  -0.0000-0.4000 0.2500  plane waves:     472
 k-point 36 :   0.1667-0.4000 0.2500  plane waves:     470
 k-point 37 :   0.3333-0.4000 0.2500  plane waves:     472
 k-point 38 :   0.5000-0.4000 0.2500  plane waves:     472
 k-point 39 :  -0.3333-0.4000 0.2500  plane waves:     475
 k-point 40 :  -0.1667-0.4000 0.2500  plane waves:     472
 k-point 41 :  -0.0000-0.2000 0.2500  plane waves:     472
 k-point 42 :   0.1667-0.2000 0.2500  plane waves:     474
 k-point 43 :   0.3333-0.2000 0.2500  plane waves:     475
 k-point 44 :   0.5000-0.2000 0.2500  plane waves:     480
 k-point 45 :  -0.3333-0.2000 0.2500  plane waves:     478
 k-point 46 :  -0.1667-0.2000 0.2500  plane waves:     477
 k-point 47 :   0.0000 0.0000 0.5000  plane waves:     466
 k-point 48 :   0.1667 0.0000 0.5000  plane waves:     470
 k-point 49 :   0.3333 0.0000 0.5000  plane waves:     483
 k-point 50 :   0.5000 0.0000 0.5000  plane waves:     484
 k-point 51 :   0.0000 0.2000 0.5000  plane waves:     465
 k-point 52 :   0.1667 0.2000 0.5000  plane waves:     475
 k-point 53 :   0.3333 0.2000 0.5000  plane waves:     479
 k-point 54 :   0.5000 0.2000 0.5000  plane waves:     478
 k-point 55 :  -0.3333 0.2000 0.5000  plane waves:     474
 k-point 56 :  -0.1667 0.2000 0.5000  plane waves:     468
 k-point 57 :   0.0000 0.4000 0.5000  plane waves:     464
 k-point 58 :   0.1667 0.4000 0.5000  plane waves:     469
 k-point 59 :   0.3333 0.4000 0.5000  plane waves:     473
 k-point 60 :   0.5000 0.4000 0.5000  plane waves:     469
 k-point 61 :  -0.3333 0.4000 0.5000  plane waves:     466
 k-point 62 :  -0.1667 0.4000 0.5000  plane waves:     471

 maximum and minimum number of plane-waves per node :       133      105

 maximum number of plane-waves:       486
 maximum index in each direction: 
   IXMAX=    4   IYMAX=    4   IZMAX=    6
   IXMIN=   -4   IYMIN=   -4   IZMIN=   -7


 total amount of memory used by VASP MPI-rank0    31101. kBytes
=======================================================================

   base      :      30000. kBytes
   nonl-proj :        537. kBytes
   fftplans  :        176. kBytes
   grid      :        242. kBytes
   one-center:          3. kBytes
   wavefun   :        143. kBytes
 
     INWAV:  cpu time    0.0000: real time    0.0000
 Broyden mixing: mesh for mixing (old mesh)
   NGX =  9   NGY =  9   NGZ = 13
  (NGX  = 32   NGY  = 36   NGZ  = 56)
  gives a total of   1053 points

 initial charge density was supplied:
 charge density of overlapping atoms calculated
 number of electron       3.0000000 magnetization 
 keeping initial charge density in first step


--------------------------------------------------------------------------------------------------------


 Maximum index for augmentation-charges          566 (set IRDMAX)


--------------------------------------------------------------------------------------------------------


 First call to EWALD:  gamma=   0.598
 Maximum number of real-space cells 3x 3x 2
 Maximum number of reciprocal cells 2x 3x 4

    FEWALD:  cpu time    0.0015: real time    0.0015


--------------------------------------- Iteration      1(   1)  ---------------------------------------


    POTLOK:  cpu time    0.0056: real time    0.0067
    SETDIJ:  cpu time    0.0014: real time    0.0014
    EDDIAG:  cpu time    0.0307: real time    0.0308
  RMM-DIIS:  cpu time    0.0057: real time    0.0057
    ORTHCH:  cpu time    0.0009: real time    0.0009
       DOS:  cpu time    0.0011: real time    0.0011
    --------------------------------------------
      LOOP:  cpu time    0.0455: real time    0.0467

 eigenvalue-minimisations  :   310
 total energy-change (2. order) : 0.1093929E+01  (-0.2720875E+02)
 number of electron       3.0000000 magnetization 
 augmentation part        3.0000000 magnetization 

 Free energy of the ion-electron system (eV)
  ---------------------------------------------------
  alpha Z        PSCENC =        -0.12882990
  Ewald energy   TEWEN  =       -59.44762566
  -Hartree energ DENC   =        -2.11429343
  -exchange      EXHF   =         0.00000000
  -V(xc)+E(xc)   XCENC  =       -26.85389322
  PAW double counting   =        66.20015713      -34.24562076
  entropy T*S    EENTRO =         0.00059054
  eigenvalues    EBANDS =         4.14528969
  atomic energy  EATOM  =        53.53815432
  Solvation  Ediel_sol  =         0.00000000
  ---------------------------------------------------
  free energy    TOTEN  =         1.09392870 eV

  energy without entropy =        1.09333817  energy(sigma->0) =        1.09373186


--------------------------------------------------------------------------------------------------------




--------------------------------------- Iteration      1(   2)  ---------------------------------------


    EDDIAG:  cpu time    0.0206: real time    0.0206
  RMM-DIIS:  cpu time    0.0054: real time    0.0054
    ORTHCH:  cpu time    0.0009: real time    0.0009
       DOS:  cpu time    0.0005: real time    0.0005
    --------------------------------------------
      LOOP:  cpu time    0.0273: real time    0.0274

 eigenvalue-minimisations  :   310
 total energy-change (2. order) :-0.3736686E+01  (-0.3302705E+01)
 number of electron       3.0000000 magnetization 
 augmentation part        3.0000000 magnetization 

 Free energy of the ion-electron system (eV)
  ---------------------------------------------------
  alpha Z        PSCENC =        -0.12882990
  Ewald energy   TEWEN  =       -59.44762566
  -Hartree energ DENC   =        -2.11429343
  -exchange      EXHF   =         0.00000000
  -V(xc)+E(xc)   XCENC  =       -26.85389322
  PAW double counting   =        66.20015713      -34.24562076
  entropy T*S    EENTRO =         0.00014061
  eigenvalues    EBANDS =         0.40905380
  atomic energy  EATOM  =        53.53815432
  Solvation  Ediel_sol  =         0.00000000
  ---------------------------------------------------
  free energy    TOTEN  =        -2.64275712 eV

  energy without entropy =       -2.64289773  energy(sigma->0) =       -2.64280399


--------------------------------------------------------------------------------------------------------




--------------------------------------- Iteration      1(   3)  ---------------------------------------


    EDDIAG:  cpu time    0.0196: real time    0.0197
  RMM-DIIS:  cpu time    0.0054: real time    0.0054
    ORTHCH:  cpu time    0.0009: real time    0.0009
       DOS:  cpu time    0.0004: real time    0.0004
    --------------------------------------------
      LOOP:  cpu time    0.0263: real time    0.0264

 eigenvalue-minimisations  :   310
 total energy-change (2. order) :-0.3358024E+00  (-0.2603345E+00)
 number of electron       3.0000000 magnetization 
 augmentation part        3.0000000 magnetization 

 Free energy of the ion-electron system (eV)
  ---------------------------------------------------
  alpha Z        PSCENC =        -0.12882990
  Ewald energy   TEWEN  =       -59.44762566
  -Hartree energ DENC   =        -2.11429343
  -exchange      EXHF   =         0.00000000
  -V(xc)+E(xc)   XCENC  =       -26.85389322
  PAW double counting   =        66.20015713      -34.24562076
  entropy T*S    EENTRO =        -0.00079129
  eigenvalues    EBANDS =         0.07418333
  atomic energy  EATOM  =        53.53815432
  Solvation  Ediel_sol  =         0.00000000
  ---------------------------------------------------
  free energy    TOTEN  =        -2.97855948 eV

  energy without entropy =       -2.97776819  energy(sigma->0) =       -2.97829572


--------------------------------------------------------------------------------------------------------




--------------------------------------- Iteration      1(   4)  ---------------------------------------


    EDDIAG:  cpu time    0.0186: real time    0.0187
  RMM-DIIS:  cpu time    0.0054: real time    0.0054
    ORTHCH:  cpu time    0.0009: real time    0.0009
       DOS:  cpu time    0.0004: real time    0.0004
    --------------------------------------------
      LOOP:  cpu time    0.0253: real time    0.0255

 eigenvalue-minimisations  :   310
 total energy-change (2. order) :-0.9467199E-01  (-0.4316340E-01)
 number of electron       3.0000000 magnetization 
 augmentation part        3.0000000 magnetization 

 Free energy of the ion-electron system (eV)
  ---------------------------------------------------
  alpha Z        PSCENC =        -0.12882990
  Ewald energy   TEWEN  =       -59.44762566
  -Hartree energ DENC   =        -2.11429343
  -exchange      EXHF   =         0.00000000
  -V(xc)+E(xc)   XCENC  =       -26.85389322
  PAW double counting   =        66.20015713      -34.24562076
  entropy T*S    EENTRO =         0.00030640
  eigenvalues    EBANDS =        -0.02158635
  atomic energy  EATOM  =        53.53815432
  Solvation  Ediel_sol  =         0.00000000
  ---------------------------------------------------
  free energy    TOTEN  =        -3.07323147 eV

  energy without entropy =       -3.07353788  energy(sigma->0) =       -3.07333361


--------------------------------------------------------------------------------------------------------




--------------------------------------- Iteration      1(   5)  ---------------------------------------


    EDDIAG:  cpu time    0.0181: real time    0.0183
  RMM-DIIS:  cpu time    0.0054: real time    0.0054
    ORTHCH:  cpu time    0.0009: real time    0.0009
       DOS:  cpu time    0.0004: real time    0.0004
    --------------------------------------------
      LOOP:  cpu time    0.0248: real time    0.0250

 eigenvalue-minimisations  :   310
 total energy-change (2. order) :-0.1284462E-01  (-0.9262668E-02)
 number of electron       3.0000000 magnetization 
 augmentation part        3.0000000 magnetization 

 Free energy of the ion-electron system (eV)
  ---------------------------------------------------
  alpha Z        PSCENC =        -0.12882990
  Ewald energy   TEWEN  =       -59.44762566
  -Hartree energ DENC   =        -2.11429343
  -exchange      EXHF   =         0.00000000
  -V(xc)+E(xc)   XCENC  =       -26.85389322
  PAW double counting   =        66.20015713      -34.24562076
  entropy T*S    EENTRO =         0.00059727
  eigenvalues    EBANDS =        -0.03472184
  atomic energy  EATOM  =        53.53815432
  Solvation  Ediel_sol  =         0.00000000
  ---------------------------------------------------
  free energy    TOTEN  =        -3.08607610 eV

  energy without entropy =       -3.08667337  energy(sigma->0) =       -3.08627519


--------------------------------------------------------------------------------------------------------




--------------------------------------- Iteration      1(   6)  ---------------------------------------


    EDDIAG:  cpu time    0.0179: real time    0.0181
  RMM-DIIS:  cpu time    0.0054: real time    0.0054
    ORTHCH:  cpu time    0.0009: real time    0.0009
       DOS:  cpu time    0.0005: real time    0.0005
    --------------------------------------------
      LOOP:  cpu time    0.0246: real time    0.0248

 eigenvalue-minimisations  :   310
 total energy-change (2. order) :-0.2140289E-02  (-0.1914240E-02)
 number of electron       3.0000000 magnetization 
 augmentation part        3.0000000 magnetization 

 Free energy of the ion-electron system (eV)
  ---------------------------------------------------
  alpha Z        PSCENC =        -0.12882990
  Ewald energy   TEWEN  =       -59.44762566
  -Hartree energ DENC   =        -2.11429343
  -exchange      EXHF   =         0.00000000
  -V(xc)+E(xc)   XCENC  =       -26.85389322
  PAW double counting   =        66.20015713      -34.24562076
  entropy T*S    EENTRO =         0.00064393
  eigenvalues    EBANDS =        -0.03690879
  atomic energy  EATOM  =        53.53815432
  Solvation  Ediel_sol  =         0.00000000
  ---------------------------------------------------
  free energy    TOTEN  =        -3.08821639 eV

  energy without entropy =       -3.08886032  energy(sigma->0) =       -3.08843103


--------------------------------------------------------------------------------------------------------




--------------------------------------- Iteration      1(   7)  ---------------------------------------


    EDDIAG:  cpu time    0.0180: real time    0.0182
  RMM-DIIS:  cpu time    0.0054: real time    0.0054
    ORTHCH:  cpu time    0.0009: real time    0.0009
       DOS:  cpu time    0.0004: real time    0.0004
    --------------------------------------------
      LOOP:  cpu time    0.0247: real time    0.0249

 eigenvalue-minimisations  :   310
 total energy-change (2. order) :-0.4848932E-03  (-0.4489510E-03)
 number of electron       3.0000000 magnetization 
 augmentation part        3.0000000 magnetization 

 Free energy of the ion-electron system (eV)
  ---------------------------------------------------
  alpha Z        PSCENC =        -0.12882990
  Ewald energy   TEWEN  =       -59.44762566
  -Hartree energ DENC   =        -2.11429343
  -exchange      EXHF   =         0.00000000
  -V(xc)+E(xc)   XCENC  =       -26.85389322
  PAW double counting   =        66.20015713      -34.24562076
  entropy T*S    EENTRO =         0.00065287
  eigenvalues    EBANDS =        -0.03740262
  atomic energy  EATOM  =        53.53815432
  Solvation  Ediel_sol  =         0.00000000
  ---------------------------------------------------
  free energy    TOTEN  =        -3.08870128 eV

  energy without entropy =       -3.08935414  energy(sigma->0) =       -3.08891890


--------------------------------------------------------------------------------------------------------




--------------------------------------- Iteration      1(   8)  ---------------------------------------


    EDDIAG:  cpu time    0.0175: real time    0.0176
  RMM-DIIS:  cpu time    0.0054: real time    0.0054
    ORTHCH:  cpu time    0.0009: real time    0.0009
       DOS:  cpu time    0.0004: real time    0.0004
    --------------------------------------------
      LOOP:  cpu time    0.0242: real time    0.0243

 eigenvalue-minimisations  :   310
 total energy-change (2. order) :-0.1218855E-03  (-0.1154287E-03)
 number of electron       3.0000000 magnetization 
 augmentation part        3.0000000 magnetization 

 Free energy of the ion-electron system (eV)
  ---------------------------------------------------
  alpha Z        PSCENC =        -0.12882990
  Ewald energy   TEWEN  =       -59.44762566
  -Hartree energ DENC   =        -2.11429343
  -exchange      EXHF   =         0.00000000
  -V(xc)+E(xc)   XCENC  =       -26.85389322
  PAW double counting   =        66.20015713      -34.24562076
  entropy T*S    EENTRO =         0.00065481
  eigenvalues    EBANDS =        -0.03752645
  atomic energy  EATOM  =        53.53815432
  Solvation  Ediel_sol  =         0.00000000
  ---------------------------------------------------
  free energy    TOTEN  =        -3.08882316 eV

  energy without entropy =       -3.08947798  energy(sigma->0) =       -3.08904144


--------------------------------------------------------------------------------------------------------




--------------------------------------- Iteration      1(   9)  ---------------------------------------


    EDDIAG:  cpu time    0.0178: real time    0.0184
  RMM-DIIS:  cpu time    0.0105: real time    0.0106
    ORTHCH:  cpu time    0.0009: real time    0.0009
       DOS:  cpu time    0.0004: real time    0.0004
    --------------------------------------------
      LOOP:  cpu time    0.0297: real time    0.0303

 eigenvalue-minimisations  :   624
 total energy-change (2. order) :-0.4143846E-04  (-0.4035128E-04)
 number of electron       3.0000000 magnetization 
 augmentation part        3.0000000 magnetization 

 Free energy of the ion-electron system (eV)
  ---------------------------------------------------
  alpha Z        PSCENC =        -0.12882990
  Ewald energy   TEWEN  =       -59.44762566
  -Hartree energ DENC   =        -2.11429343
  -exchange      EXHF   =         0.00000000
  -V(xc)+E(xc)   XCENC  =       -26.85389322
  PAW double counting   =        66.20015713      -34.24562076
  entropy T*S    EENTRO =         0.00065538
  eigenvalues    EBANDS =        -0.03756846
  atomic energy  EATOM  =        53.53815432
  Solvation  Ediel_sol  =         0.00000000
  ---------------------------------------------------
  free energy    TOTEN  =        -3.08886460 eV

  energy without entropy =       -3.08951998  energy(sigma->0) =       -3.08908306


--------------------------------------------------------------------------------------------------------




--------------------------------------- Iteration      1(  10)  ---------------------------------------


    EDDIAG:  cpu time    0.0180: real time    0.0181
  RMM-DIIS:  cpu time    0.0084: real time    0.0084
    ORTHCH:  cpu time    0.0009: real time    0.0009
       DOS:  cpu time    0.0004: real time    0.0004
    --------------------------------------------
      LOOP:  cpu time    0.0277: real time    0.0278

 eigenvalue-minimisations  :   594
 total energy-change (2. order) :-0.4965712E-05  (-0.4939911E-05)
 number of electron       3.0000000 magnetization 
 augmentation part        3.0000000 magnetization 

 Free energy of the ion-electron system (eV)
  ---------------------------------------------------
  alpha Z        PSCENC =        -0.12882990
  Ewald energy   TEWEN  =       -59.44762566
  -Hartree energ DENC   =        -2.11429343
  -exchange      EXHF   =         0.00000000
  -V(xc)+E(xc)   XCENC  =       -26.85389322
  PAW double counting   =        66.20015713      -34.24562076
  entropy T*S    EENTRO =         0.00065544
  eigenvalues    EBANDS =        -0.03757348
  atomic energy  EATOM  =        53.53815432
  Solvation  Ediel_sol  =         0.00000000
  ---------------------------------------------------
  free energy    TOTEN  =        -3.08886957 eV

  energy without entropy =       -3.08952501  energy(sigma->0) =       -3.08908805


--------------------------------------------------------------------------------------------------------




--------------------------------------- Iteration      1(  11)  ---------------------------------------


    EDDIAG:  cpu time    0.0173: real time    0.0175
  RMM-DIIS:  cpu time    0.0084: real time    0.0084
    ORTHCH:  cpu time    0.0009: real time    0.0009
       DOS:  cpu time    0.0005: real time    0.0005
    --------------------------------------------
      LOOP:  cpu time    0.0271: real time    0.0272

 eigenvalue-minimisations  :   450
 total energy-change (2. order) :-0.2615392E-06  (-0.2550473E-06)
 number of electron       3.0000000 magnetization 
 augmentation part        3.0000000 magnetization 

 Free energy of the ion-electron system (eV)
  ---------------------------------------------------
  alpha Z        PSCENC =        -0.12882990
  Ewald energy   TEWEN  =       -59.44762566
  -Hartree energ DENC   =        -2.11429343
  -exchange      EXHF   =         0.00000000
  -V(xc)+E(xc)   XCENC  =       -26.85389322
  PAW double counting   =        66.20015713      -34.24562076
  entropy T*S    EENTRO =         0.00065544
  eigenvalues    EBANDS =        -0.03757374
  atomic energy  EATOM  =        53.53815432
  Solvation  Ediel_sol  =         0.00000000
  ---------------------------------------------------
  free energy    TOTEN  =        -3.08886983 eV

  energy without entropy =       -3.08952527  energy(sigma->0) =       -3.08908831


--------------------------------------------------------------------------------------------------------




--------------------------------------- Iteration      1(  12)  ---------------------------------------


    EDDIAG:  cpu time    0.0198: real time    0.0199
  RMM-DIIS:  cpu time    0.0100: real time    0.0100
    ORTHCH:  cpu time    0.0010: real time    0.0010
       DOS:  cpu time    0.0004: real time    0.0004
    CHARGE:  cpu time    0.0041: real time    0.0041
    MIXING:  cpu time    0.0006: real time    0.0006
    --------------------------------------------
      LOOP:  cpu time    0.0358: real time    0.0360

 eigenvalue-minimisations  :   420
 total energy-change (2. order) :-0.9016073E-07  (-0.8778544E-07)
 number of electron       3.0000000 magnetization 
 augmentation part       -0.0474584 magnetization 

 Broyden mixing:
  rms(total) = 0.14576E+00    rms(broyden)= 0.14576E+00
  rms(prec ) = 0.41312E+00
  weight for this iteration     100.00

 Free energy of the ion-electron system (eV)
  ---------------------------------------------------
  alpha Z        PSCENC =        -0.12882990
  Ewald energy   TEWEN  =       -59.44762566
  -Hartree energ DENC   =        -2.11429343
  -exchange      EXHF   =         0.00000000
  -V(xc)+E(xc)   XCENC  =       -26.85389322
  PAW double counting   =        66.20015713      -34.24562076
  entropy T*S    EENTRO =         0.00065544
  eigenvalues    EBANDS =        -0.03757383
  atomic energy  EATOM  =        53.53815432
  Solvation  Ediel_sol  =         0.00000000
  ---------------------------------------------------
  free energy    TOTEN  =        -3.08886992 eV

  energy without entropy =       -3.08952536  energy(sigma->0) =       -3.08908840


--------------------------------------------------------------------------------------------------------




--------------------------------------- Iteration      1(  13)  ---------------------------------------


    POTLOK:  cpu time    0.0031: real time    0.0033
    SETDIJ:  cpu time    0.0007: real time    0.0007
    EDDIAG:  cpu time    0.0200: real time    0.0200
  RMM-DIIS:  cpu time    0.0093: real time    0.0094
    ORTHCH:  cpu time    0.0015: real time    0.0015
       DOS:  cpu time    0.0004: real time    0.0004
    CHARGE:  cpu time    0.0035: real time    0.0035
    MIXING:  cpu time    0.0004: real time    0.0004
    --------------------------------------------
      LOOP:  cpu time    0.0389: real time    0.0391

 eigenvalue-minimisations  :   620
 total energy-change (2. order) : 0.5083940E-01  (-0.1377328E-02)
 number of electron       3.0000000 magnetization 
 augmentation part       -0.0474423 magnetization 

 Broyden mixing:
  rms(total) = 0.86248E-01    rms(broyden)= 0.86248E-01
  rms(prec ) = 0.24407E+00
  weight for this iteration     100.00

 eigenvalues of (default mixing * dielectric matrix)
  average eigenvalue GAMMA=   2.4385
  2.4385

 Free energy of the ion-electron system (eV)
  ---------------------------------------------------
  alpha Z        PSCENC =        -0.12882990
  Ewald energy   TEWEN  =       -59.44762566
  -Hartree energ DENC   =        -2.36361114
  -exchange      EXHF   =         0.00000000
  -V(xc)+E(xc)   XCENC  =       -26.80639483
  PAW double counting   =        87.11250809      -55.16889655
  entropy T*S    EENTRO =         0.00111916
  eigenvalues    EBANDS =         0.22554600
  atomic energy  EATOM  =        53.53815432
  Solvation  Ediel_sol  =         0.00000000
  ---------------------------------------------------
  free energy    TOTEN  =        -3.03803052 eV

  energy without entropy =       -3.03914967  energy(sigma->0) =       -3.03840357


--------------------------------------------------------------------------------------------------------




--------------------------------------- Iteration      1(  14)  ---------------------------------------


    POTLOK:  cpu time    0.0025: real time    0.0027
    SETDIJ:  cpu time    0.0013: real time    0.0013
    EDDIAG:  cpu time    0.0205: real time    0.0205
  RMM-DIIS:  cpu time    0.0094: real time    0.0094
    ORTHCH:  cpu time    0.0009: real time    0.0009
       DOS:  cpu time    0.0004: real time    0.0004
    CHARGE:  cpu time    0.0027: real time    0.0027
    MIXING:  cpu time    0.0004: real time    0.0004
    --------------------------------------------
      LOOP:  cpu time    0.0383: real time    0.0384

 eigenvalue-minimisations  :   620
 total energy-change (2. order) : 0.2628585E-01  (-0.3206812E-02)
 number of electron       3.0000000 magnetization 
 augmentation part       -0.0475622 magnetization 

 Broyden mixing:
  rms(total) = 0.82469E-02    rms(broyden)= 0.82468E-02
  rms(prec ) = 0.25768E-01
  weight for this iteration     100.00

 eigenvalues of (default mixing * dielectric matrix)
  average eigenvalue GAMMA=   2.3260
  2.3260  2.3260

 Free energy of the ion-electron system (eV)
  ---------------------------------------------------
  alpha Z        PSCENC =        -0.12882990
  Ewald energy   TEWEN  =       -59.44762566
  -Hartree energ DENC   =        -2.80612013
  -exchange      EXHF   =         0.00000000
  -V(xc)+E(xc)   XCENC  =       -26.71958902
  PAW double counting   =       126.15516784      -94.22643471
  entropy T*S    EENTRO =         0.00099146
  eigenvalues    EBANDS =         0.62254113
  atomic energy  EATOM  =        53.53815432
  Solvation  Ediel_sol  =         0.00000000
  ---------------------------------------------------
  free energy    TOTEN  =        -3.01174467 eV

  energy without entropy =       -3.01273613  energy(sigma->0) =       -3.01207516


--------------------------------------------------------------------------------------------------------




--------------------------------------- Iteration      1(  15)  ---------------------------------------


    POTLOK:  cpu time    0.0025: real time    0.0026
    SETDIJ:  cpu time    0.0012: real time    0.0012
    EDDIAG:  cpu time    0.0179: real time    0.0179
  RMM-DIIS:  cpu time    0.0092: real time    0.0092
    ORTHCH:  cpu time    0.0010: real time    0.0010
       DOS:  cpu time    0.0004: real time    0.0004
    CHARGE:  cpu time    0.0027: real time    0.0027
    MIXING:  cpu time    0.0003: real time    0.0003
    --------------------------------------------
      LOOP:  cpu time    0.0352: real time    0.0354

 eigenvalue-minimisations  :   620
 total energy-change (2. order) : 0.9052884E-04  (-0.7159309E-04)
 number of electron       3.0000000 magnetization 
 augmentation part       -0.0477209 magnetization 

 Broyden mixing:
  rms(total) = 0.67075E-02    rms(broyden)= 0.67075E-02
  rms(prec ) = 0.20441E-01
  weight for this iteration     100.00

 eigenvalues of (default mixing * dielectric matrix)
  average eigenvalue GAMMA=   1.8062
  0.9162  2.2512  2.2512

 Free energy of the ion-electron system (eV)
  ---------------------------------------------------
  alpha Z        PSCENC =        -0.12882990
  Ewald energy   TEWEN  =       -59.44762566
  -Hartree energ DENC   =        -2.72410051
  -exchange      EXHF   =         0.00000000
  -V(xc)+E(xc)   XCENC  =       -26.72885269
  PAW double counting   =       121.15290329      -89.22048700
  entropy T*S    EENTRO =         0.00152561
  eigenvalues    EBANDS =         0.54565840
  atomic energy  EATOM  =        53.53815432
  Solvation  Ediel_sol  =         0.00000000
  ---------------------------------------------------
  free energy    TOTEN  =        -3.01165414 eV

  energy without entropy =       -3.01317975  energy(sigma->0) =       -3.01216268


--------------------------------------------------------------------------------------------------------




--------------------------------------- Iteration      1(  16)  ---------------------------------------


    POTLOK:  cpu time    0.0025: real time    0.0027
    SETDIJ:  cpu time    0.0011: real time    0.0011
    EDDIAG:  cpu time    0.0179: real time    0.0179
  RMM-DIIS:  cpu time    0.0092: real time    0.0092
    ORTHCH:  cpu time    0.0009: real time    0.0009
       DOS:  cpu time    0.0004: real time    0.0004
    CHARGE:  cpu time    0.0027: real time    0.0027
    MIXING:  cpu time    0.0003: real time    0.0003
    --------------------------------------------
      LOOP:  cpu time    0.0351: real time    0.0352

 eigenvalue-minimisations  :   620
 total energy-change (2. order) : 0.1552153E-03  (-0.1622220E-04)
 number of electron       3.0000000 magnetization 
 augmentation part       -0.0477761 magnetization 

 Broyden mixing:
  rms(total) = 0.19722E-02    rms(broyden)= 0.19722E-02
  rms(prec ) = 0.28093E-02
  weight for this iteration     100.00

 eigenvalues of (default mixing * dielectric matrix)
  average eigenvalue GAMMA=   2.1460
  2.5699  2.5699  2.5349  0.9093

 Free energy of the ion-electron system (eV)
  ---------------------------------------------------
  alpha Z        PSCENC =        -0.12882990
  Ewald energy   TEWEN  =       -59.44762566
  -Hartree energ DENC   =        -2.75434173
  -exchange      EXHF   =         0.00000000
  -V(xc)+E(xc)   XCENC  =       -26.72157148
  PAW double counting   =       123.38226294      -91.45071412
  entropy T*S    EENTRO =         0.00133486
  eigenvalues    EBANDS =         0.56983185
  atomic energy  EATOM  =        53.53815432
  Solvation  Ediel_sol  =         0.00000000
  ---------------------------------------------------
  free energy    TOTEN  =        -3.01149893 eV

  energy without entropy =       -3.01283378  energy(sigma->0) =       -3.01194388


--------------------------------------------------------------------------------------------------------




--------------------------------------- Iteration      1(  17)  ---------------------------------------


    POTLOK:  cpu time    0.0024: real time    0.0026
    SETDIJ:  cpu time    0.0011: real time    0.0011
    EDDIAG:  cpu time    0.0176: real time    0.0176
  RMM-DIIS:  cpu time    0.0084: real time    0.0084
    ORTHCH:  cpu time    0.0009: real time    0.0009
       DOS:  cpu time    0.0005: real time    0.0004
    --------------------------------------------
      LOOP:  cpu time    0.0309: real time    0.0310

 eigenvalue-minimisations  :   434
 total energy-change (2. order) :-0.7640852E-06  (-0.7412340E-06)
 number of electron       3.0000000 magnetization 
 augmentation part       -0.0477761 magnetization 

 Free energy of the ion-electron system (eV)
  ---------------------------------------------------
  alpha Z        PSCENC =        -0.12882990
  Ewald energy   TEWEN  =       -59.44762566
  -Hartree energ DENC   =        -2.75796026
  -exchange      EXHF   =         0.00000000
  -V(xc)+E(xc)   XCENC  =       -26.72092455
  PAW double counting   =       122.23769411      -90.30660737
  entropy T*S    EENTRO =         0.00131734
  eigenvalues    EBANDS =         0.57328229
  atomic energy  EATOM  =        53.53815432
  Solvation  Ediel_sol  =         0.00000000
  ---------------------------------------------------
  free energy    TOTEN  =        -3.01149969 eV

  energy without entropy =       -3.01281703  energy(sigma->0) =       -3.01193880


--------------------------------------------------------------------------------------------------------




 average (electrostatic) potential at core
  the test charge radii are     1.0406
  (the norm of the test charge is              1.0000)
       1 -76.8182
 
 
 
 E-fermi :   3.6093     XC(G=0):  -8.3877     alpha+bet : -9.4148


 k-point     1 :       0.0000    0.0000    0.0000
  band No.  band energies     occupation 
      1      -4.8171      2.00000
      2       5.4988     -0.00000
      3       7.7953     -0.00000
      4      12.7802      0.00000
      5      12.8749      0.00000

 k-point     2 :       0.1667    0.0000    0.0000
  band No.  band energies     occupation 
      1      -4.1051      2.00000
      2       5.2516     -0.00000
      3       9.2595      0.00000
      4      10.8643      0.00000
      5      13.4058      0.00000

 k-point     3 :       0.3333    0.0000    0.0000
  band No.  band energies     occupation 
      1      -2.0019      2.00000
      2       5.5908     -0.00000
      3       6.0456     -0.00000
      4      11.2094      0.00000
      5      13.0732      0.00000

 k-point     4 :       0.5000    0.0000    0.0000
  band No.  band energies     occupation 
      1       1.1248      2.00000
      2       1.6861      2.00000
      3       7.1459     -0.00000
      4       8.3719     -0.00000
      5      16.6411      0.00000

 k-point     5 :       0.0000    0.2000    0.0000
  band No.  band energies     occupation 
      1      -4.0555      2.00000
      2       5.7672     -0.00000
      3       6.8667     -0.00000
      4       9.0882      0.00000
      5      14.3265      0.00000

 k-point     6 :       0.1667    0.2000    0.0000
  band No.  band energies     occupation 
      1      -3.4129      2.00000
      2       6.5409     -0.00000
      3       7.6020     -0.00000
      4       9.2365      0.00000
      5      12.9472      0.00000

 k-point     7 :       0.3333    0.2000    0.0000
  band No.  band energies     occupation 
      1      -1.3819      2.00000
      2       6.3629     -0.00000
      3       7.2521     -0.00000
      4      10.2995      0.00000
      5      11.6566      0.00000

 k-point     8 :       0.5000    0.2000    0.0000
  band No.  band energies     occupation 
      1       1.7526      2.00000
      2       2.4540      2.00000
      3       7.5441     -0.00000
      4       9.3413      0.00000
      5      12.5185      0.00000

 k-point     9 :      -0.3333    0.2000    0.0000
  band No.  band energies     occupation 
      1      -1.1445      2.00000
      2       5.6301     -0.00000
      3       6.2626     -0.00000
      4       9.6390      0.00000
      5      12.6171      0.00000

 k-point    10 :      -0.1667    0.2000    0.0000
  band No.  band energies     occupation 
      1      -3.2840      2.00000
      2       5.1143     -0.00000
      3       7.2360     -0.00000
      4      10.7311      0.00000
      5      13.2592      0.00000

 k-point    11 :       0.0000    0.4000    0.0000
  band No.  band energies     occupation 
      1      -1.8257      2.00000
      2       2.0086      2.00000
      3       6.9320     -0.00000
      4      10.0079      0.00000
      5      12.4065      0.00000

 k-point    12 :       0.1667    0.4000    0.0000
  band No.  band energies     occupation 
      1      -1.2532      2.00000
      2       2.8167      2.00000
      3       8.0328     -0.00000
      4      10.0674      0.00000
      5      11.3919      0.00000

 k-point    13 :       0.3333    0.4000    0.0000
  band No.  band energies     occupation 
      1       0.6732      2.00000
      2       4.7153     -0.00000
      3       8.7120     -0.00000
      4       9.6967      0.00000
      5      11.2999      0.00000

 k-point    14 :       0.5000    0.4000    0.0000
  band No.  band energies     occupation 
      1       3.5078      1.74853
      2       4.5660     -0.00000
      3       7.8365     -0.00000
      4       8.5604     -0.00000
      5       9.3036      0.00000

 k-point    15 :      -0.3333    0.4000    0.0000
  band No.  band energies     occupation 
      1       1.1000      2.00000
      2       4.2008     -0.00024
      3       6.9949     -0.00000
      4       8.8251     -0.00000
      5      14.4266      0.00000

 k-point    16 :      -0.1667    0.4000    0.0000
  band No.  band energies     occupation 
      1      -1.0148      2.00000
      2       2.4925      2.00000
      3       6.3405     -0.00000
      4      11.5985      0.00000
      5      15.5615      0.00000

 k-point    17 :       0.0000    0.0000    0.2500
  band No.  band energies     occupation 
      1      -4.3297      2.00000
      2       2.2690      2.00000
      3      12.0337      0.00000
      4      12.6210      0.00000
      5      13.1228      0.00000

 k-point    18 :       0.1667    0.0000    0.2500
  band No.  band energies     occupation 
      1      -3.3524      2.00000
      2       1.8612      2.00000
      3      10.2160      0.00000
      4      13.2621      0.00000
      5      14.1224      0.00000

 k-point    19 :       0.3333    0.0000    0.2500
  band No.  band energies     occupation 
      1      -1.1562      2.00000
      2       3.0455      2.00050
      3       5.2198     -0.00000
      4      14.1157      0.00000
      5      14.9132      0.00000

 k-point    20 :       0.5000    0.0000    0.2500
  band No.  band energies     occupation 
      1       0.8380      2.00000
      2       2.1052      2.00000
      3       5.9651     -0.00000
      4      10.9667      0.00000
      5      13.4380      0.00000

 k-point    21 :      -0.3333    0.0000    0.2500
  band No.  band energies     occupation 
      1      -2.1976      2.00000
      2       5.9465     -0.00000
      3       7.2131     -0.00000
      4      10.8034      0.00000
      5      11.3138      0.00000

 k-point    22 :      -0.1667    0.0000    0.2500
  band No.  band energies     occupation 
      1      -3.9532      2.00000
      2       4.1236     -0.00167
      3      10.1941      0.00000
      4      11.1629      0.00000
      5      13.3761      0.00000

 k-point    23 :       0.0000    0.2000    0.2500
  band No.  band energies     occupation 
      1      -3.7738      2.00000
      2       3.7065      0.27528
      3       7.5805     -0.00000
      4      11.5195      0.00000
      5      12.5024      0.00000

 k-point    24 :       0.1667    0.2000    0.2500
  band No.  band energies     occupation 
      1      -2.8177      2.00000
      2       3.1779      2.00931
      3       7.8721     -0.00000
      4      11.7632      0.00000
      5      12.9341      0.00000

 k-point    25 :       0.3333    0.2000    0.2500
  band No.  band energies     occupation 
      1      -0.5841      2.00000
      2       4.1444     -0.00102
      3       5.8120     -0.00000
      4      10.1485      0.00000
      5      14.3006      0.00000

 k-point    26 :       0.5000    0.2000    0.2500
  band No.  band energies     occupation 
      1       1.5115      2.00000
      2       2.8086      2.00000
      3       6.7500     -0.00000
      4      11.0741      0.00000
      5      12.3379      0.00000

 k-point    27 :      -0.3333    0.2000    0.2500
  band No.  band energies     occupation 
      1      -1.5440      2.00000
      2       6.5454     -0.00000
      3       8.3012     -0.00000
      4       9.9543      0.00000
      5      11.7233      0.00000

 k-point    28 :      -0.1667    0.2000    0.2500
  band No.  band energies     occupation 
      1      -3.3509      2.00000
      2       5.5779     -0.00000
      3       7.8834     -0.00000
      4      10.2480      0.00000
      5      13.5225      0.00000

 k-point    29 :       0.0000    0.4000    0.2500
  band No.  band energies     occupation 
      1      -1.7481      2.00000
      2       2.7890      2.00000
      3       5.9528     -0.00000
      4       8.0599     -0.00000
      5      12.6797      0.00000

 k-point    30 :       0.1667    0.4000    0.2500
  band No.  band energies     occupation 
      1      -0.8449      2.00000
      2       3.4466      1.98690
      3       5.6108     -0.00000
      4       8.1100     -0.00000
      5      13.4411      0.00000

 k-point    31 :       0.3333    0.4000    0.2500
  band No.  band energies     occupation 
      1       1.3346      2.00000
      2       4.8502     -0.00000
      3       6.5993     -0.00000
      4       8.6899     -0.00000
      5      12.0041      0.00000

 k-point    32 :       0.5000    0.4000    0.2500
  band No.  band energies     occupation 
      1       3.3961      2.06141
      2       4.6852     -0.00000
      3       8.0601     -0.00000
      4       8.1953     -0.00000
      5       9.1276      0.00000

 k-point    33 :      -0.3333    0.4000    0.2500
  band No.  band energies     occupation 
      1       0.5474      2.00000
      2       4.5686     -0.00000
      3       9.2046      0.00000
      4       9.7735      0.00000
      5      11.6212      0.00000

 k-point    34 :      -0.1667    0.4000    0.2500
  band No.  band energies     occupation 
      1      -1.2782      2.00000
      2       3.1420      2.00466
      3       7.4824     -0.00000
      4       9.7132      0.00000
      5      11.4197      0.00000

 k-point    35 :      -0.0000   -0.4000    0.2500
  band No.  band energies     occupation 
      1      -1.0521      2.00000
      2       1.8660      2.00000
      3       3.8473     -0.07052
      4      11.2743      0.00000
      5      14.6363      0.00000

 k-point    36 :       0.1667   -0.4000    0.2500
  band No.  band energies     occupation 
      1      -0.1896      2.00000
      2       2.6475      2.00000
      3       3.8723     -0.06872
      4      10.6154      0.00000
      5      13.4905      0.00000

 k-point    37 :       0.3333   -0.4000    0.2500
  band No.  band energies     occupation 
      1       1.6501      2.00000
      2       4.5616     -0.00000
      3       5.6440     -0.00000
      4       8.4809     -0.00000
      5      12.0441      0.00000

 k-point    38 :       0.5000   -0.4000    0.2500
  band No.  band energies     occupation 
      1       3.4537      1.96858
      2       4.5343     -0.00000
      3       7.8928     -0.00000
      4       8.4709     -0.00000
      5       9.1696      0.00000

 k-point    39 :      -0.3333   -0.4000    0.2500
  band No.  band energies     occupation 
      1       0.8835      2.00000
      2       4.1131     -0.00213
      3       8.2245     -0.00000
      4       8.8434     -0.00000
      5      12.5540      0.00000

 k-point    40 :      -0.1667   -0.4000    0.2500
  band No.  band energies     occupation 
      1      -0.7213      2.00000
      2       2.3789      2.00000
      3       5.4157     -0.00000
      4      12.3833      0.00000
      5      12.8956      0.00000

 k-point    41 :      -0.0000   -0.2000    0.2500
  band No.  band energies     occupation 
      1      -3.3910      2.00000
      2       2.2999      2.00000
      3       6.6110     -0.00000
      4      14.0588      0.00000
      5      16.5545      0.00000

 k-point    42 :       0.1667   -0.2000    0.2500
  band No.  band energies     occupation 
      1      -2.4400      2.00000
      2       2.0737      2.00000
      3       7.2164     -0.00000
      4      11.6572      0.00000
      5      16.2597      0.00000

 k-point    43 :       0.3333   -0.2000    0.2500
  band No.  band energies     occupation 
      1      -0.3782      2.00000
      2       3.5369      1.57062
      3       5.7540     -0.00000
      4       9.8705      0.00000
      5      15.5222      0.00000

 k-point    44 :       0.5000   -0.2000    0.2500
  band No.  band energies     occupation 
      1       1.5561      2.00000
      2       2.7011      2.00000
      3       6.7737     -0.00000
      4      11.4049      0.00000
      5      12.2983      0.00000

 k-point    45 :      -0.3333   -0.2000    0.2500
  band No.  band energies     occupation 
      1      -1.3626      2.00000
      2       6.1967     -0.00000
      3       7.1612     -0.00000
      4       9.5384      0.00000
      5      12.0265      0.00000

 k-point    46 :      -0.1667   -0.2000    0.2500
  band No.  band energies     occupation 
      1      -3.0499      2.00000
      2       4.0451     -0.00860
      3       7.0541     -0.00000
      4      11.3613      0.00000
      5      13.8113      0.00000

 k-point    47 :       0.0000    0.0000    0.5000
  band No.  band energies     occupation 
      1      -3.6022      2.00000
      2       0.3156      2.00000
      3      12.5871      0.00000
      4      12.7455      0.00000
      5      16.4728      0.00000

 k-point    48 :       0.1667    0.0000    0.5000
  band No.  band energies     occupation 
      1      -3.0920      2.00000
      2       1.2309      2.00000
      3      10.0705      0.00000
      4      13.2537      0.00000
      5      14.5902      0.00000

 k-point    49 :       0.3333    0.0000    0.5000
  band No.  band energies     occupation 
      1      -1.4865      2.00000
      2       3.8417     -0.06959
      3       5.3199     -0.00000
      4      13.4122      0.00000
      5      14.8217      0.00000

 k-point    50 :       0.5000    0.0000    0.5000
  band No.  band energies     occupation 
      1       1.0636      2.00000
      2       1.5834      2.00000
      3       7.4594     -0.00000
      4       8.6535     -0.00000
      5      16.2501      0.00000

 k-point    51 :       0.0000    0.2000    0.5000
  band No.  band energies     occupation 
      1      -2.9240      2.00000
      2       1.1393      2.00000
      3       7.1113     -0.00000
      4      13.4417      0.00000
      5      16.5624      0.00000

 k-point    52 :       0.1667    0.2000    0.5000
  band No.  band energies     occupation 
      1      -2.2370      2.00000
      2       1.7109      2.00000
      3       7.2631     -0.00000
      4      11.4775      0.00000
      5      15.2647      0.00000

 k-point    53 :       0.3333    0.2000    0.5000
  band No.  band energies     occupation 
      1      -0.5510      2.00000
      2       4.0726     -0.00506
      3       5.6973     -0.00000
      4       9.4850      0.00000
      5      14.9370      0.00000

 k-point    54 :       0.5000    0.2000    0.5000
  band No.  band energies     occupation 
      1       1.6601      2.00000
      2       2.3913      2.00000
      3       7.8723     -0.00000
      4       9.5685      0.00000
      5      12.2237      0.00000

 k-point    55 :      -0.3333    0.2000    0.5000
  band No.  band energies     occupation 
      1      -0.9983      2.00000
      2       5.1022     -0.00000
      3       6.0500     -0.00000
      4      10.5409      0.00000
      5      13.6856      0.00000

 k-point    56 :      -0.1667    0.2000    0.5000
  band No.  band energies     occupation 
      1      -2.5561      2.00000
      2       2.3477      2.00000
      3       7.8079     -0.00000
      4      11.7026      0.00000
      5      13.4922      0.00000

 k-point    57 :       0.0000    0.4000    0.5000
  band No.  band energies     occupation 
      1      -0.9151      2.00000
      2       2.5012      2.00000
      3       3.5395      1.55287
      4       8.0876     -0.00000
      5      19.5746      0.00000

 k-point    58 :       0.1667    0.4000    0.5000
  band No.  band energies     occupation 
      1      -0.0884      2.00000
      2       2.7666      2.00000
      3       3.8261     -0.06355
      4       9.5748      0.00000
      5      13.3506      0.00000

 k-point    59 :       0.3333    0.4000    0.5000
  band No.  band energies     occupation 
      1       1.6770      2.00000
      2       4.2154     -0.00016
      3       5.8401     -0.00000
      4       8.2828     -0.00000
      5      12.6542      0.00000

 k-point    60 :       0.5000    0.4000    0.5000
  band No.  band energies     occupation 
      1       3.3878      2.06598
      2       4.5641     -0.00000
      3       7.5955     -0.00000
      4       8.6977     -0.00000
      5       9.6220      0.00000

 k-point    61 :      -0.3333    0.4000    0.5000
  band No.  band energies     occupation 
      1       0.8999      2.00000
      2       5.1080     -0.00000
      3       7.4490     -0.00000
      4       9.1146      0.00000
      5      10.1393      0.00000

 k-point    62 :      -0.1667    0.4000    0.5000
  band No.  band energies     occupation 
      1      -0.6237      2.00000
      2       3.4127      2.04661
      3       4.8305     -0.00000
      4       8.1891     -0.00000
      5      13.6082      0.00000


--------------------------------------------------------------------------------------------------------


 soft charge-density along one line, spin component           1
         0         1         2         3         4         5         6         7         8         9
 total charge-density along one line
 
 pseudopotential strength for first ion, spin component:           1
  8.592  14.650  -0.000   0.000  -0.000  -0.000   0.000  -0.000
 14.650  24.979  -0.000   0.000  -0.000  -0.000   0.000  -0.000
 -0.000  -0.000   1.984  -0.000  -0.000   5.748  -0.001  -0.000
  0.000   0.000  -0.000   1.985   0.000  -0.001   5.751   0.001
 -0.000  -0.000  -0.000   0.000   1.984  -0.000   0.001   5.748
 -0.000  -0.000   5.748  -0.001  -0.000  16.554  -0.002  -0.001
  0.000   0.000  -0.001   5.751   0.001  -0.002  16.561   0.004
 -0.000  -0.000  -0.000   0.001   5.748  -0.001   0.004  16.553
 total augmentation occupancy for first ion, spin component:           1
  3.074  -0.594   0.000   0.000   0.000   0.000   0.000   0.000
 -0.594   0.175   0.000   0.000   0.000   0.000   0.000   0.000
  0.000   0.000   0.929   0.088   0.053  -0.050  -0.006  -0.003
  0.000   0.000   0.088   0.588  -0.292  -0.005  -0.029   0.019
  0.000   0.000   0.053  -0.292   1.260  -0.003   0.019  -0.073
  0.000   0.000  -0.050  -0.005  -0.003   0.003   0.000   0.000
  0.000   0.000  -0.006  -0.029   0.019   0.000   0.002  -0.001
  0.000   0.000  -0.003   0.019  -0.073   0.000  -0.001   0.005


[...]
      1      -1.0927      2.00000
      2       1.7453      2.00000
      3      10.4253      0.00000
      4      11.4085      0.00000
      5      13.6011      0.00000

 k-point    17 :       0.0000    0.0000    0.2500
  band No.  band energies     occupation 
      1      -3.1566      2.00000
      2       6.8727     -0.00000
      3       9.7423      0.00000
      4      10.3677      0.00000
      5      15.3375      0.00000

 k-point    18 :       0.1667    0.0000    0.2500
  band No.  band energies     occupation 
      1      -1.4856      2.00000
      2       4.3785     -0.00005
      3       6.9444     -0.00000
      4      10.9609      0.00000
      5      13.8812      0.00000

 k-point    19 :       0.3333    0.0000    0.2500
  band No.  band energies     occupation 
      1       1.2775      2.00000
      2       2.1753      2.00000
      3       3.7148      1.13307
      4      12.4070      0.00000
      5      13.9955      0.00000

 k-point    20 :       0.5000    0.0000    0.2500
  band No.  band energies     occupation 
      1      -0.8676      2.00000
      2       3.2955      2.00872
      3       5.4360     -0.00000
      4      12.9488      0.00000
      5      15.1925      0.00000

 k-point    21 :      -0.3333    0.0000    0.2500
  band No.  band energies     occupation 
      1      -2.8322      2.00000
      2       4.3599     -0.00008
      3      10.2397      0.00000
      4      12.0383      0.00000
      5      13.5918      0.00000

 k-point    22 :      -0.1667    0.0000    0.2500
  band No.  band energies     occupation 
      1      -3.6082      2.00000
      2       6.5806     -0.00000
      3      10.3039      0.00000
      4      10.8122      0.00000
      5      13.6505      0.00000

 k-point    23 :       0.0000    0.2000    0.2500
  band No.  band energies     occupation 
      1      -2.9683      2.00000
      2       7.9806     -0.00000
      3       9.1931      0.00000
      4      10.6206      0.00000
      5      12.2494      0.00000

 k-point    24 :       0.1667    0.2000    0.2500
  band No.  band energies     occupation 
      1      -1.4998      2.00000
      2       5.9069     -0.00000
      3       7.9334     -0.00000
      4       9.9407      0.00000
      5      11.8811      0.00000

 k-point    25 :       0.3333    0.2000    0.2500
  band No.  band energies     occupation 
      1       1.1387      2.00000
      2       3.1798      2.00069
      3       4.9907     -0.00000
      4       9.3056      0.00000
      5      15.2229      0.00000

 k-point    26 :       0.5000    0.2000    0.2500
  band No.  band energies     occupation 
      1      -0.0597      2.00000
      2       4.3972     -0.00003
      3       5.1085     -0.00000
      4       8.5442     -0.00000
      5      16.0648      0.00000

 k-point    27 :      -0.3333    0.2000    0.2500
  band No.  band energies     occupation 
      1      -2.2313      2.00000
      2       5.3261     -0.00000
      3       7.5921     -0.00000
      4       9.9548      0.00000
      5      16.5599      0.00000

 k-point    28 :      -0.1667    0.2000    0.2500
  band No.  band energies     occupation 
      1      -3.2135      2.00000
      2       6.9618     -0.00000
      3       8.1060     -0.00000
      4      12.1012      0.00000
      5      14.7310      0.00000

 k-point    29 :       0.0000    0.4000    0.2500
  band No.  band energies     occupation 
      1      -1.5523      2.00000
      2       4.1084     -0.02252
      3       8.4226     -0.00000
      4      11.9940      0.00000
      5      12.4033      0.00000

 k-point    30 :       0.1667    0.4000    0.2500
  band No.  band energies     occupation 
      1      -0.2827      2.00000
      2       6.0011     -0.00000
      3       6.5926     -0.00000
      4       9.5946      0.00000
      5       9.7273      0.00000

 k-point    31 :       0.3333    0.4000    0.2500
  band No.  band energies     occupation 
      1       2.1492      2.00000
      2       5.1517     -0.00000
      3       5.6645     -0.00000
      4       6.7301     -0.00000
      5       9.4186      0.00000

 k-point    32 :       0.5000    0.4000    0.2500
  band No.  band energies     occupation 
      1       1.8439      2.00000
      2       4.3202     -0.00025
      3       5.9773     -0.00000
      4       6.0745     -0.00000
      5       8.6640     -0.00000

 k-point    33 :      -0.3333    0.4000    0.2500
  band No.  band energies     occupation 
      1      -0.4653      2.00000
      2       3.2520      2.00369
      3       7.1548     -0.00000
      4       9.6060      0.00000
      5      10.5631      0.00000

 k-point    34 :      -0.1667    0.4000    0.2500
  band No.  band energies     occupation 
      1      -1.6126      2.00000
      2       3.1145      2.00012
      3       9.2116      0.00000
      4      11.3303      0.00000
      5      12.2121      0.00000

 k-point    35 :      -0.0000   -0.4000    0.2500
  band No.  band energies     occupation 
      1      -0.1552      2.00000
      2       1.8947      2.00000
      3       6.8467     -0.00000
      4      11.5501      0.00000
      5      13.6864      0.00000

 k-point    36 :       0.1667   -0.4000    0.2500
  band No.  band energies     occupation 
      1       1.5152      2.00000
      2       3.1826      2.00074
      3       4.8446     -0.00000
      4       8.2059     -0.00000
      5      13.0872      0.00000

 k-point    37 :       0.3333   -0.4000    0.2500
  band No.  band energies     occupation 
      1       3.2504      2.00356
      2       4.0909     -0.02874
      3       4.7553     -0.00000
      4       6.1021     -0.00000
      5       9.6282      0.00000

 k-point    38 :       0.5000   -0.4000    0.2500
  band No.  band energies     occupation 
      1       1.2021      2.00000
      2       4.2125     -0.00343
      3       5.6908     -0.00000
      4       7.6418     -0.00000
      5      10.3986      0.00000

 k-point    39 :      -0.3333   -0.4000    0.2500
  band No.  band energies     occupation 
      1      -0.3633      2.00000
      2       3.0862      2.00005
      3       5.8619     -0.00000
      4      11.6743      0.00000
      5      12.0806      0.00000

 k-point    40 :      -0.1667   -0.4000    0.2500
  band No.  band energies     occupation 
      1      -0.8172      2.00000
      2       1.8781      2.00000
      3       8.3797     -0.00000
      4       9.9820      0.00000
      5      13.6195      0.00000

 k-point    41 :      -0.0000   -0.2000    0.2500
  band No.  band energies     occupation 
      1      -2.0924      2.00000
      2       5.2893     -0.00000
      3       6.4062     -0.00000
      4      10.2516      0.00000
      5      19.5818      0.00000

 k-point    42 :       0.1667   -0.2000    0.2500
  band No.  band energies     occupation 
      1      -0.2402      2.00000
      2       3.9041     -0.01067
      3       6.1551     -0.00000
      4       7.2041     -0.00000
      5      15.1323      0.00000

 k-point    43 :       0.3333   -0.2000    0.2500
  band No.  band energies     occupation 
      1       2.0298      2.00000
      2       2.8761      2.00000
      3       3.6194      1.79860
      4       8.2985     -0.00000
      5      13.8408      0.00000

 k-point    44 :       0.5000   -0.2000    0.2500
  band No.  band energies     occupation 
      1      -0.4280      2.00000
      2       3.2369      2.00266
      3       6.8592     -0.00000
      4       9.9812      0.00000
      5      11.8072      0.00000

 k-point    45 :      -0.3333   -0.2000    0.2500
  band No.  band energies     occupation 
      1      -2.1725      2.00000
      2       4.4437     -0.00001
      3       7.3314     -0.00000
      4      11.9817      0.00000
      5      14.2607      0.00000

 k-point    46 :      -0.1667   -0.2000    0.2500
  band No.  band energies     occupation 
      1      -2.7415      2.00000
      2       5.6359     -0.00000
      3       7.0924     -0.00000
      4       9.6718      0.00000
      5      17.4723      0.00000

 k-point    47 :       0.0000    0.0000    0.5000
  band No.  band energies     occupation 
      1       0.3514      2.00000
      2       1.0691      2.00000
      3      10.3782      0.00000
      4      11.3940      0.00000
      5      13.1790      0.00000

 k-point    48 :       0.1667    0.0000    0.5000
  band No.  band energies     occupation 
      1      -0.8257      2.00000
      2       3.4077      2.04481
      3       5.5140     -0.00000
      4      11.3529      0.00000
      5      13.6276      0.00000

 k-point    49 :       0.3333    0.0000    0.5000
  band No.  band energies     occupation 
      1      -1.1563      2.00000
      2       2.2939      2.00000
      3       7.1615     -0.00000
      4      11.9747      0.00000
      5      15.4698      0.00000

 k-point    50 :       0.5000    0.0000    0.5000
  band No.  band energies     occupation 
      1      -0.7745      2.00000
      2       0.7164      2.00000
      3      11.3567      0.00000
      4      12.1424      0.00000
      5      15.2980      0.00000

 k-point    51 :       0.0000    0.2000    0.5000
  band No.  band energies     occupation 
      1       0.3921      2.00000
      2       2.2163      2.00000
      3       7.3543     -0.00000
      4      11.4601      0.00000
      5      14.5293      0.00000

 k-point    52 :       0.1667    0.2000    0.5000
  band No.  band energies     occupation 
      1       0.4356      2.00000
      2       2.9638      2.00000
      3       6.0202     -0.00000
      4       7.0549     -0.00000
      5      14.9711      0.00000

 k-point    53 :       0.3333    0.2000    0.5000
  band No.  band energies     occupation 
      1      -0.0882      2.00000
      2       2.8298      2.00000
      3       6.4343     -0.00000
      4       7.4410     -0.00000
      5      12.9039      0.00000

 k-point    54 :       0.5000    0.2000    0.5000
  band No.  band energies     occupation 
      1      -0.1820      2.00000
      2       1.3477      2.00000
      3       8.6248     -0.00000
      4      11.0680      0.00000
      5      11.8372      0.00000

 k-point    55 :      -0.3333    0.2000    0.5000
  band No.  band energies     occupation 
      1      -0.9797      2.00000
      2       2.9336      2.00000
      3       8.5664     -0.00000
      4      10.5120      0.00000
      5      13.0540      0.00000

 k-point    56 :      -0.1667    0.2000    0.5000
  band No.  band energies     occupation 
      1      -0.8644      2.00000
      2       4.9632     -0.00000
      3       5.9300     -0.00000
      4       9.2596      0.00000
      5      12.3059      0.00000

 k-point    57 :       0.0000    0.4000    0.5000
  band No.  band energies     occupation 
      1       1.4023      2.00000
      2       3.3468      2.02061
      3       5.4062     -0.00000
      4       9.4375      0.00000
      5      11.0751      0.00000

 k-point    58 :       0.1667    0.4000    0.5000
  band No.  band energies     occupation 
      1       2.1796      2.00000
      2       3.3625      2.02583
      3       4.2428     -0.00175
      4       7.9643     -0.00000
      5      11.4124      0.00000

 k-point    59 :       0.3333    0.4000    0.5000
  band No.  band energies     occupation 
      1       1.8973      2.00000
      2       3.4744      2.07002
      3       4.6846     -0.00000
      4       7.1492     -0.00000
      5       8.8933     -0.00000

 k-point    60 :       0.5000    0.4000    0.5000
  band No.  band energies     occupation 
      1       1.5562      2.00000
      2       2.9622      2.00000
      3       4.8078     -0.00000
      4       7.5618     -0.00000
      5      11.4613      0.00000

 k-point    61 :      -0.3333    0.4000    0.5000
  band No.  band energies     occupation 
      1       0.4193      2.00000
      2       4.5451     -0.00000
      3       5.9119     -0.00000
      4       8.6738     -0.00000
      5       8.8565     -0.00000

 k-point    62 :      -0.1667    0.4000    0.5000
  band No.  band energies     occupation 
      1       0.3261      2.00000
      2       5.4463     -0.00000
      3       6.4834     -0.00000
      4       7.8016     -0.00000
      5       9.1459     -0.00000


--------------------------------------------------------------------------------------------------------


 soft charge-density along one line, spin component           1
         0         1         2         3         4         5         6         7         8         9
 total charge-density along one line
 
 pseudopotential strength for first ion, spin component:           1
  8.584  14.637  -0.000   0.000  -0.000  -0.000   0.000  -0.000
 14.637  24.959  -0.000   0.000  -0.000  -0.000   0.000  -0.000
 -0.000  -0.000   1.975  -0.000  -0.000   5.727  -0.001  -0.000
  0.000   0.000  -0.000   1.975  -0.000  -0.001   5.727  -0.000
 -0.000  -0.000  -0.000  -0.000   1.975  -0.000  -0.000   5.727
 -0.000  -0.000   5.727  -0.001  -0.000  16.501  -0.002  -0.001
  0.000   0.000  -0.001   5.727  -0.000  -0.002  16.502  -0.001
 -0.000  -0.000  -0.000  -0.000   5.727  -0.001  -0.001  16.501
 total augmentation occupancy for first ion, spin component:           1
  2.294  -0.315   0.000   0.000   0.000   0.000   0.000   0.000
 -0.315   0.108   0.000   0.000   0.000   0.000   0.000   0.000
  0.000   0.000   0.727   0.092   0.039  -0.038  -0.005  -0.003
  0.000   0.000   0.092   0.676   0.041  -0.006  -0.035  -0.002
  0.000   0.000   0.039   0.041   0.734  -0.003  -0.001  -0.043
  0.000   0.000  -0.038  -0.006  -0.003   0.002   0.000   0.000
  0.000   0.000  -0.005  -0.035  -0.001   0.000   0.002   0.000
  0.000   0.000  -0.003  -0.002  -0.043   0.000   0.000   0.003


------------------------ aborting loop because EDIFF is reached ----------------------------------------


 


 total charge     
 
# of ion       s       p       d       tot
------------------------------------------
    1        0.479   0.231   0.000   0.710
 
    CHARGE:  cpu time    0.0028: real time    0.0028
    FORLOC:  cpu time    0.0001: real time    0.0001
    FORNL :  cpu time    0.0011: real time    0.0011
    STRESS:  cpu time    0.0169: real time    0.0169
    FORCOR:  cpu time    0.0023: real time    0.0023
    FORHAR:  cpu time    0.0005: real time    0.0005
    MIXING:  cpu time    0.0002: real time    0.0002
    OFIELD:  cpu time    0.0000: real time    0.0000

  FORCE on cell =-STRESS in cart. coord.  units (eV):
  Direction    XX          YY          ZZ          XY          YZ          ZX
  --------------------------------------------------------------------------------------
  Alpha Z    -0.12883    -0.12883    -0.12883
  Ewald     -19.67824   -22.46524   -20.43095     0.66397     1.22832     1.56094
  Hartree     0.30706    -0.00813     0.26666     0.02741     0.06578     0.13437
  E(xc)      -7.69439    -7.69238    -7.67627    -0.01457    -0.02812    -0.01467
  Local      -3.71617    -0.95570    -2.79840    -0.79409    -1.67634    -1.77745
  n-local    18.74546    18.62679    18.51375     0.20281     0.43257     0.26241
  augment    -1.29866    -1.30719    -1.29025    -0.01078    -0.03092    -0.01447
  Kinetic    11.68600    12.15334    11.75919    -0.07241    -0.00009    -0.15505
  Fock        0.00000     0.00000     0.00000     0.00000     0.00000     0.00000
  -------------------------------------------------------------------------------------
  Total      -1.77776    -1.77734    -1.78510     0.00234    -0.00880    -0.00393
  in kB    -109.24824  -109.22275  -109.69943     0.14364    -0.54085    -0.24177
  external pressure =     -109.39 kB  Pullay stress =        0.00 kB


 VOLUME and BASIS-vectors are now :
 -----------------------------------------------------------------------------
  energy-cutoff  :      400.00
  volume of cell :       26.07
      direct lattice vectors                 reciprocal lattice vectors
     2.952707012  0.259821612 -1.148898014     0.377888035 -0.019637888  0.096344758
     0.021059035  3.050667541  0.539216767    -0.035965919  0.331146585 -0.017545320
    -0.822813529  0.082517826  3.244098259     0.139807183 -0.061996187  0.345288873

  length of vectors
     3.178986098  3.098026896  3.347835840     0.390470647  0.333555762  0.377642664


 FORCES acting on ions
    electron-ion (+dipol)            ewald-force                    non-local-force                 convergence-correction
 -----------------------------------------------------------------------------------------------
   0.596E-05 -.287E-05 0.171E-05   -.770E-16 -.469E-16 -.128E-15   0.000E+00 0.662E-22 0.000E+00   0.851E-10 0.864E-10 -.125E-09
 -----------------------------------------------------------------------------------------------
   0.596E-05 -.287E-05 0.171E-05   -.770E-16 -.469E-16 -.128E-15   0.000E+00 0.662E-22 0.000E+00   0.851E-10 0.864E-10 -.125E-09
 
 
 POSITION                                       TOTAL-FORCE (eV/Angst)
 -----------------------------------------------------------------------------------
      1.96790      1.59445      2.19405        -0.000000      0.000000      0.000000
 -----------------------------------------------------------------------------------
    total drift:                                0.000006     -0.000003      0.000002


--------------------------------------------------------------------------------------------------------



  FREE ENERGIE OF THE ION-ELECTRON SYSTEM (eV)
  ---------------------------------------------------
  free  energy   TOTEN  =        -3.24271732 eV

  energy  without entropy=       -3.24368127  energy(sigma->0) =       -3.24303863
 
 d Force = 0.0000000E+00[ 0.000E+00, 0.000E+00]  d Energy = 0.1727884E-03-0.173E-03
 d Force = 0.0000000E+00[ 0.000E+00, 0.000E+00]  d Ewald  =-0.7908303E-02 0.791E-02


--------------------------------------------------------------------------------------------------------


    POTLOK:  cpu time    0.0034: real time    0.0034


--------------------------------------------------------------------------------------------------------


 Conjugate gradient step on ions:
 trial-energy change:   -0.000173  1 .order   -0.000169   -0.000281   -0.000057
  (g-gl).g = 0.123E-03      g.g   = 0.170E-03  gl.gl    = 0.520E-02
 g(Force)  = 0.000E+00   g(Stress)= 0.170E-03 ortho     = 0.121E-04
 gamma     =   0.02362
 trial     =   1.65276
 opt step  =   2.07718  (harmonic =   2.07718) maximal distance =0.00000000
 next E    =    -3.242721   (d E  =  -0.00018)


--------------------------------------------------------------------------------------------------------


  
 reached required accuracy - stopping structural energy minimisation
 writing wavefunctions
     LOOP+:  cpu time    0.1401: real time    0.1440
    4ORBIT:  cpu time    0.0000: real time    0.0000
 


 total charge     
 
# of ion       s       p       d       tot
------------------------------------------
    1        0.479   0.231   0.000   0.710
 

 total amount of memory used by VASP MPI-rank0    31101. kBytes
=======================================================================

   base      :      30000. kBytes
   nonl-proj :        537. kBytes
   fftplans  :        176. kBytes
   grid      :        242. kBytes
   one-center:          3. kBytes
   wavefun   :        143. kBytes
 
  
  
 General timing and accounting informations for this job:
 ========================================================
  
                  Total CPU time used (sec):        3.451
                            User time (sec):        3.315
                          System time (sec):        0.136
                         Elapsed time (sec):        4.043
  
                   Maximum memory used (kb):      119056.
                   Average memory used (kb):           0.
  
                          Minor page faults:        13454
                          Major page faults:         2371
                 Voluntary context switches:         2661
