<?xml version="1.0" encoding="ISO-8859-1"?>
<modeling>
 <generator>
  <i name="program" type="string">vasp </i>
  <i name="version" type="string">5.4.4.18Apr17-6-g9f103f2a35  </i>
  <i name="subversion" type="string">(build Feb 19 2020 16:12:31) complex            parallel </i>
  <i name="platform" type="string">LinuxIFC </i>
  <i name="date" type="string">2024 06 07 </i>
  <i name="time" type="string">02:12:37 </i>
 </generator>
 <incar>
  <i type="string" name="PREC">normal</i>
  <i type="int" name="NELM">   240</i>
  <i name="EDIFF">      0.00001000</i>
  <i type="int" name="NSW">     0</i>
  <i type="logical" name="LAECHG"> T  </i>
  <v type="int" name="KPOINT_BSE">    -1     0     0     0</v>
  <i type="int" name="NELM">   240</i>
 </incar>
 <structure name="primitive_cell" >
  <crystal>
   <varray name="basis" >
    <v>       3.05309016       0.26992264      -1.01201698 </v>
    <v>       0.02353372       3.07416826       0.45112076 </v>
    <v>      -0.76514699       0.02330515       3.04689700 </v>
   </varray>
   <i name="volume">     26.07166505 </i>
   <varray name="rec_basis" >
    <v>       0.35886318      -0.01598972       0.09024123 </v>
    <v>      -0.03244947       0.32710260      -0.01065077 </v>
    <v>       0.12399968      -0.05374144       0.35975303 </v>
   </varray>
  </crystal>
  <varray name="positions" >
   <v>      -0.07628010       0.41872333      -0.06614272 </v>
  </varray>
 </structure>
 <varray name="primitive_index" >
  <v type="int" >        1 </v>
 </varray>
 <kpoints>
  <generation param="Gamma">
   <v type="int" name="divisions">       5        5        5 </v>
   <v name="usershift">      0.00000000       0.00000000       0.00000000 </v>
   <v name="genvec1">      0.20000000       0.00000000      -0.00000000 </v>
   <v name="genvec2">     -0.00000000       0.20000000       0.00000000 </v>
   <v name="genvec3">     -0.00000000       0.00000000       0.20000000 </v>
   <v name="shift">      0.00000000       0.00000000       0.00000000 </v>
  </generation>
  <varray name="kpointlist" >
   <v>       0.00000000       0.00000000       0.00000000 </v>
   <v>       0.20000000       0.00000000       0.00000000 </v>
   <v>       0.40000000       0.00000000       0.00000000 </v>
   <v>      -0.00000000       0.20000000       0.00000000 </v>
   <v>       0.20000000       0.20000000       0.00000000 </v>
   <v>       0.40000000       0.20000000      -0.00000000 </v>
   <v>      -0.40000000       0.20000000      -0.00000000 </v>
   <v>      -0.20000000       0.20000000      -0.00000000 </v>
   <v>      -0.00000000       0.40000000       0.00000000 </v>
   <v>       0.20000000       0.40000000       0.00000000 </v>
   <v>       0.40000000       0.40000000       0.00000000 </v>
   <v>      -0.40000000       0.40000000      -0.00000000 </v>
   <v>      -0.20000000       0.40000000      -0.00000000 </v>
   <v>       0.00000000      -0.00000000       0.20000000 </v>
   <v>       0.20000000       0.00000000       0.20000000 </v>
   <v>       0.40000000      -0.00000000       0.20000000 </v>
   <v>      -0.40000000      -0.00000000       0.20000000 </v>
   <v>      -0.20000000      -0.00000000       0.20000000 </v>
   <v>       0.00000000       0.20000000       0.20000000 </v>
   <v>       0.20000000       0.20000000       0.20000000 </v>
   <v>       0.40000000       0.20000000       0.20000000 </v>
   <v>      -0.40000000       0.20000000       0.20000000 </v>
   <v>      -0.20000000       0.20000000       0.20000000 </v>
   <v>       0.00000000       0.40000000       0.20000000 </v>
   <v>       0.20000000       0.40000000       0.20000000 </v>
   <v>       0.40000000       0.40000000       0.20000000 </v>
   <v>      -0.40000000       0.40000000       0.20000000 </v>
   <v>      -0.20000000       0.40000000       0.20000000 </v>
   <v>       0.00000000      -0.40000000       0.20000000 </v>
   <v>       0.20000000      -0.40000000       0.20000000 </v>
   <v>       0.40000000      -0.40000000       0.20000000 </v>
   <v>      -0.40000000      -0.40000000       0.20000000 </v>
   <v>      -0.20000000      -0.40000000       0.20000000 </v>
   <v>       0.00000000      -0.20000000       0.20000000 </v>
   <v>       0.20000000      -0.20000000       0.20000000 </v>
   <v>       0.40000000      -0.20000000       0.20000000 </v>
   <v>      -0.40000000      -0.20000000       0.20000000 </v>
   <v>      -0.20000000      -0.20000000       0.20000000 </v>
   <v>       0.00000000      -0.00000000       0.40000000 </v>
   <v>       0.20000000      -0.00000000       0.40000000 </v>
   <v>       0.40000000       0.00000000       0.40000000 </v>
   <v>      -0.40000000      -0.00000000       0.40000000 </v>
   <v>      -0.20000000       0.00000000       0.40000000 </v>
   <v>       0.00000000       0.20000000       0.40000000 </v>
   <v>       0.20000000       0.20000000       0.40000000 </v>
   <v>       0.40000000       0.20000000       0.40000000 </v>
   <v>      -0.40000000       0.20000000       0.40000000 </v>
   <v>      -0.20000000       0.20000000       0.40000000 </v>
   <v>       0.00000000       0.40000000       0.40000000 </v>
   <v>       0.20000000       0.40000000       0.40000000 </v>
   <v>       0.40000000       0.40000000       0.40000000 </v>
   <v>      -0.40000000       0.40000000       0.40000000 </v>
   <v>      -0.20000000       0.40000000       0.40000000 </v>
   <v>       0.00000000      -0.40000000       0.40000000 </v>
   <v>       0.20000000      -0.40000000       0.40000000 </v>
   <v>       0.40000000      -0.40000000       0.40000000 </v>
   <v>      -0.40000000      -0.40000000       0.40000000 </v>
   <v>      -0.20000000      -0.40000000       0.40000000 </v>
   <v>       0.00000000      -0.20000000       0.40000000 </v>
   <v>       0.20000000      -0.20000000       0.40000000 </v>
   <v>       0.40000000      -0.20000000       0.40000000 </v>
   <v>      -0.40000000      -0.20000000       0.40000000 </v>
   <v>      -0.20000000      -0.20000000       0.40000000 </v>
  </varray>
  <varray name="weights" >
   <v>       0.00800000 </v>
   <v>       0.01600000 </v>
   <v>       0.01600000 </v>
   <v>       0.01600000 </v>
   <v>       0.01600000 </v>
   <v>       0.01600000 </v>
   <v>       0.01600000 </v>
   <v>       0.01600000 </v>
   <v>       0.01600000 </v>
   <v>       0.01600000 </v>
   <v>       0.01600000 </v>
   <v>       0.01600000 </v>
   <v>       0.01600000 </v>
   <v>       0.01600000 </v>
   <v>       0.01600000 </v>
   <v>       0.01600000 </v>
   <v>       0.01600000 </v>
   <v>       0.01600000 </v>
   <v>       0.01600000 </v>
   <v>       0.01600000 </v>
   <v>       0.01600000 </v>
   <v>       0.01600000 </v>
   <v>       0.01600000 </v>
   <v>       0.01600000 </v>
   <v>       0.01600000 </v>
   <v>       0.01600000 </v>
   <v>       0.01600000 </v>
   <v>       0.01600000 </v>
   <v>       0.01600000 </v>
   <v>       0.01600000 </v>
   <v>       0.01600000 </v>
   <v>       0.01600000 </v>
   <v>       0.01600000 </v>
   <v>       0.01600000 </v>
   <v>       0.01600000 </v>
   <v>       0.01600000 </v>
   <v>       0.01600000 </v>
   <v>       0.01600000 </v>
   <v>       0.01600000 </v>
   <v>       0.01600000 </v>
   <v>       0.01600000 </v>
   <v>       0.01600000 </v>
   <v>       0.01600000 </v>
   <v>       0.01600000 </v>
   <v>       0.01600000 </v>
   <v>       0.01600000 </v>
   <v>       0.01600000 </v>
   <v>       0.01600000 </v>
   <v>       0.01600000 </v>
   <v>       0.01600000 </v>
   <v>       0.01600000 </v>
   <v>       0.01600000 </v>
   <v>       0.01600000 </v>
   <v>       0.01600000 </v>
   <v>       0.01600000 </v>
   <v>       0.01600000 </v>
   <v>       0.01600000 </v>
   <v>       0.01600000 </v>
   <v>       0.01600000 </v>
   <v>       0.01600000 </v>
   <v>       0.01600000 </v>
   <v>       0.01600000 </v>
   <v>       0.01600000 </v>
  </varray>
 </kpoints>
 <parameters>
  <separator name="general" >
   <i type="string" name="SYSTEM">unknown system</i>
   <i type="logical" name="LCOMPAT"> F  </i>
  </separator>
  <separator name="electronic" >
   <i type="string" name="PREC">normal</i>
   <i name="ENMAX">    240.30000000</i>
   <i name="ENAUG">    291.05200000</i>
   <i name="EDIFF">      0.00001000</i>
   <i type="int" name="IALGO">    38</i>
   <i type="int" name="IWAVPR">    10</i>
   <i type="int" name="NBANDS">    40</i>
   <i name="NELECT">      3.00000000</i>
   <i type="int" name="TURBO">     0</i>
   <i type="int" name="IRESTART">     0</i>
   <i type="int" name="NREBOOT">     0</i>
   <i type="int" name="NMIN">     0</i>
   <i name="EREF">      0.00000000</i>
   <separator name="electronic smearing" >
    <i type="int" name="ISMEAR">     1</i>
    <i name="SIGMA">      0.20000000</i>
    <i name="KSPACING">      0.50000000</i>
    <i type="logical" name="KGAMMA"> T  </i>
   </separator>
   <separator name="electronic projectors" >
    <i type="logical" name="LREAL"> F  </i>
    <v name="ROPT">      0.00000000</v>
    <i type="int" name="LMAXPAW">  -100</i>
    <i type="int" name="LMAXMIX">     2</i>
    <i type="logical" name="NLSPLINE"> F  </i>
   </separator>
   <separator name="electronic startup" >
    <i type="int" name="ISTART">     1</i>
    <i type="int" name="ICHARG">     0</i>
    <i type="int" name="INIWAV">     1</i>
   </separator>
   <separator name="electronic spin" >
    <i type="int" name="ISPIN">     1</i>
    <i type="logical" name="LNONCOLLINEAR"> F  </i>
    <v name="MAGMOM">      1.00000000</v>
    <i name="NUPDOWN">     -1.00000000</i>
    <i type="logical" name="LSORBIT"> F  </i>
    <v name="SAXIS">      0.00000000      0.00000000      1.00000000</v>
    <i type="logical" name="LSPIRAL"> F  </i>
    <v name="QSPIRAL">      0.00000000      0.00000000      0.00000000</v>
    <i type="logical" name="LZEROZ"> F  </i>
   </separator>
   <separator name="electronic exchange-correlation" >
    <i type="logical" name="LASPH"> F  </i>
    <i type="logical" name="LMETAGGA"> F  </i>
   </separator>
   <separator name="electronic convergence" >
    <i type="int" name="NELM">   240</i>
    <i type="int" name="NELMDL">     0</i>
    <i type="int" name="NELMIN">     2</i>
    <i name="ENINI">    240.30000000</i>
    <separator name="electronic convergence detail" >
     <i type="logical" name="LDIAG"> T  </i>
     <i type="logical" name="LSUBROT"> F  </i>
     <i name="WEIMIN">      0.00000000</i>
     <i name="EBREAK">      0.00000006</i>
     <i name="DEPER">      0.30000000</i>
     <i type="int" name="NRMM">     4</i>
     <i name="TIME">      0.40000000</i>
    </separator>
   </separator>
   <separator name="electronic mixer" >
    <i name="AMIX">      0.40000000</i>
    <i name="BMIX">      1.00000000</i>
    <i name="AMIN">      0.10000000</i>
    <i name="AMIX_MAG">      1.60000000</i>
    <i name="BMIX_MAG">      1.00000000</i>
    <separator name="electronic mixer details" >
     <i type="int" name="IMIX">     4</i>
     <i type="logical" name="MIXFIRST"> F  </i>
     <i type="int" name="MAXMIX">   -45</i>
     <i name="WC">    100.00000000</i>
     <i type="int" name="INIMIX">     1</i>
     <i type="int" name="MIXPRE">     1</i>
     <i type="int" name="MREMOVE">     5</i>
    </separator>
   </separator>
   <separator name="electronic dipolcorrection" >
    <i type="logical" name="LDIPOL"> F  </i>
    <i type="logical" name="LMONO"> F  </i>
    <i type="int" name="IDIPOL">     0</i>
    <i name="EPSILON">      1.00000000</i>
    <v name="DIPOL">   -100.00000000   -100.00000000   -100.00000000</v>
    <i name="EFIELD">      0.00000000</i>
   </separator>
  </separator>
  <separator name="grids" >
   <i type="int" name="NGX">    12</i>
   <i type="int" name="NGY">    12</i>
   <i type="int" name="NGZ">    12</i>
   <i type="int" name="NGXF">    24</i>
   <i type="int" name="NGYF">    24</i>
   <i type="int" name="NGZF">    24</i>
   <i type="logical" name="ADDGRID"> F  </i>
  </separator>
  <separator name="ionic" >
   <i type="int" name="NSW">     0</i>
   <i type="int" name="IBRION">    -1</i>
   <i type="int" name="MDALGO">     0</i>
   <i type="int" name="ISIF">     2</i>
   <i name="PSTRESS">      0.00000000</i>
   <i name="EDIFFG">      0.00010000</i>
   <i type="int" name="NFREE">     0</i>
   <i name="POTIM">      0.50000000</i>
   <i name="SMASS">     -3.00000000</i>
   <i name="SCALEE">      1.00000000</i>
  </separator>
  <separator name="ionic md" >
   <i name="TEBEG">      0.00010000</i>
   <i name="TEEND">      0.00010000</i>
   <i type="int" name="NBLOCK">     1</i>
   <i type="int" name="KBLOCK">     1</i>
   <i type="int" name="NPACO">   256</i>
   <i name="APACO">     16.00000000</i>
  </separator>
  <separator name="symmetry" >
   <i type="int" name="ISYM">     2</i>
   <i name="SYMPREC">      0.00001000</i>
  </separator>
  <separator name="dos" >
   <i type="int" name="LORBIT">     0</i>
   <v name="RWIGS">     -1.00000000</v>
   <i type="int" name="NEDOS">   301</i>
   <i name="EMIN">     10.00000000</i>
   <i name="EMAX">    -10.00000000</i>
   <i name="EFERMI">      0.00000000</i>
  </separator>
  <separator name="writing" >
   <i type="int" name="NWRITE">     2</i>
   <i type="logical" name="LWAVE"> T  </i>
   <i type="logical" name="LDOWNSAMPLE"> F  </i>
   <i type="logical" name="LCHARG"> T  </i>
   <i type="logical" name="LPARD"> F  </i>
   <i type="logical" name="LVTOT"> F  </i>
   <i type="logical" name="LVHAR"> F  </i>
   <i type="logical" name="LELF"> F  </i>
   <i type="logical" name="LOPTICS"> F  </i>
   <v name="STM">      0.00000000      0.00000000      0.00000000      0.00000000      0.00000000      0.00000000      0.00000000</v>
  </separator>
  <separator name="performance" >
   <i type="int" name="NPAR">    40</i>
   <i type="int" name="NSIM">     4</i>
   <i type="int" name="NBLK">    -1</i>
   <i type="logical" name="LPLANE"> T  </i>
   <i type="logical" name="LSCALAPACK"> T  </i>
   <i type="logical" name="LSCAAWARE"> T  </i>
   <i type="logical" name="LSCALU"> F  </i>
   <i type="logical" name="LASYNC"> F  </i>
   <i type="logical" name="LORBITALREAL"> F  </i>
  </separator>
  <separator name="miscellaneous" >
   <i type="int" name="IDIOT">     3</i>
   <i type="int" name="ISPECIAL">     0</i>
   <i type="logical" name="LMUSIC"> F  </i>
   <v name="POMASS">     26.98100000</v>
   <v name="DARWINR">      0.00000000</v>
   <v name="DARWINV">      1.00000000</v>
   <i type="logical" name="LCORR"> T  </i>
  </separator>
  <i type="logical" name="GGA_COMPAT"> T  </i>
  <i type="logical" name="LBERRY"> F  </i>
  <i type="int" name="ICORELEVEL">     0</i>
  <i type="logical" name="LDAU"> F  </i>
  <i type="int" name="I_CONSTRAINED_M">     0</i>
  <separator name="electronic exchange-correlation" >
   <i type="string" name="GGA">--</i>
   <i type="int" name="VOSKOWN">     0</i>
   <i type="logical" name="LHFCALC"> F  </i>
   <i type="string" name="PRECFOCK"></i>
   <i type="logical" name="LSYMGRAD"> F  </i>
   <i type="logical" name="LHFONE"> F  </i>
   <i type="logical" name="LRHFCALC"> F  </i>
   <i type="logical" name="LTHOMAS"> F  </i>
   <i type="logical" name="LMODELHF"> F  </i>
   <i name="ENCUT4O">     -1.00000000</i>
   <i type="int" name="EXXOEP">     0</i>
   <i type="int" name="FOURORBIT">     0</i>
   <i name="AEXX">      0.00000000</i>
   <i name="HFALPHA">      0.00000000</i>
   <i name="MCALPHA">      0.00000000</i>
   <i name="ALDAX">      1.00000000</i>
   <i name="AGGAX">      1.00000000</i>
   <i name="ALDAC">      1.00000000</i>
   <i name="AGGAC">      1.00000000</i>
   <i type="int" name="NKREDX">     1</i>
   <i type="int" name="NKREDY">     1</i>
   <i type="int" name="NKREDZ">     1</i>
   <i type="logical" name="SHIFTRED"> F  </i>
   <i type="logical" name="ODDONLY"> F  </i>
   <i type="logical" name="EVENONLY"> F  </i>
   <i type="int" name="LMAXFOCK">     0</i>
   <i type="int" name="NMAXFOCKAE">     0</i>
   <i type="logical" name="LFOCKAEDFT"> F  </i>
   <i name="HFSCREEN">      0.00000000</i>
   <i name="HFSCREENC">      0.00000000</i>
   <i type="int" name="NBANDSGWLOW">     0</i>
  </separator>
  <separator name="vdW DFT" >
   <i type="logical" name="LUSE_VDW"> F  </i>
   <i name="Zab_VDW">     -0.84910000</i>
   <i name="PARAM1">      0.12340000</i>
   <i name="PARAM2">      1.00000000</i>
   <i name="PARAM3">      0.00000000</i>
  </separator>
  <separator name="model GW" >
   <i type="int" name="MODEL_GW">     0</i>
   <i name="MODEL_EPS0">     15.64299903</i>
   <i name="MODEL_ALPHA">      1.00000000</i>
  </separator>
  <separator name="linear response parameters" >
   <i type="logical" name="LEPSILON"> F  </i>
   <i type="logical" name="LRPA"> F  </i>
   <i type="logical" name="LNABLA"> F  </i>
   <i type="logical" name="LVEL"> F  </i>
   <i type="int" name="KINTER">     0</i>
   <i name="CSHIFT">      0.10000000</i>
   <i name="OMEGAMAX">     -1.00000000</i>
   <i name="DEG_THRESHOLD">      0.00200000</i>
   <i name="RTIME">     -0.10000000</i>
   <i name="WPLASMAI">      0.00000000</i>
   <v name="DFIELD">      0.00000000      0.00000000      0.00000000</v>
   <v name="WPLASMA">      0.00000000      0.00000000      0.00000000      0.00000000      0.00000000      0.00000000      0.00000000      0.00000000      0.00000000</v>
  </separator>
  <separator name="orbital magnetization" >
   <i type="logical" name="NUCIND"> F  </i>
   <v name="MAGPOS">      0.00000000      0.00000000      0.00000000</v>
   <i type="logical" name="LNICSALL"> T  </i>
   <i type="logical" name="ORBITALMAG"> F  </i>
   <i type="logical" name="LMAGBLOCH"> F  </i>
   <i type="logical" name="LCHIMAG"> F  </i>
   <i type="logical" name="LGAUGE"> T  </i>
   <i type="int" name="MAGATOM">     0</i>
   <v name="MAGDIPOL">      0.00000000      0.00000000      0.00000000</v>
   <v name="AVECCONST">      0.00000000      0.00000000      0.00000000</v>
  </separator>
  <separator name="response functions" >
   <i type="logical" name="LADDER"> F  </i>
   <i type="logical" name="LRPAFORCE"> F  </i>
   <i type="logical" name="LFXC"> F  </i>
   <i type="logical" name="LHARTREE"> T  </i>
   <i type="int" name="IBSE">     0</i>
   <v type="int" name="KPOINT">    -1     0     0     0</v>
   <i type="logical" name="LTCTE"> F  </i>
   <i type="logical" name="LTETE"> F  </i>
   <i type="logical" name="LTRIPLET"> F  </i>
   <i type="logical" name="LFXCEPS"> F  </i>
   <i type="logical" name="LFXHEG"> F  </i>
   <i type="int" name="NATURALO">     2</i>
   <i type="logical" name="L2ORDER"> F  </i>
   <i type="logical" name="LMP2LT"> F  </i>
   <i type="logical" name="LUSEW"> F  </i>
   <i name="ENCUTGW">     -2.00000000</i>
   <i name="ENCUTGWSOFT">     -2.00000000</i>
   <i name="ENCUTLF">     -1.00000000</i>
   <i type="int" name="LMAXMP2">    -1</i>
   <i name="SCISSOR">      0.00000000</i>
   <i type="int" name="NOMEGA">     0</i>
   <i type="int" name="NOMEGAR">     0</i>
   <i type="int" name="NBANDSGW">    -1</i>
   <i type="int" name="NBANDSO">    -1</i>
   <i type="int" name="NBANDSV">    -1</i>
   <i type="int" name="NELM">   240</i>
   <i type="int" name="NELMHF">     1</i>
   <i type="int" name="DIM">     3</i>
   <i type="int" name="ANTIRES">     0</i>
   <i name="OMEGAMAX">    -30.00000000</i>
   <i name="OMEGAMIN">    -30.00000000</i>
   <i name="OMEGATL">   -200.00000000</i>
   <i type="int" name="OMEGAGRID">   140</i>
   <i name="CSHIFT">     -0.10000000</i>
   <i type="logical" name="SELFENERGY"> F  </i>
   <i type="logical" name="LSPECTRAL"> F  </i>
   <i type="logical" name="LSPECTRALGW"> F  </i>
   <i type="logical" name="LSINGLES"> F  </i>
   <i type="logical" name="LFERMIGW"> F  </i>
   <i type="logical" name="ODDONLYGW"> F  </i>
   <i type="logical" name="EVENONLYGW"> F  </i>
   <i type="int" name="NKREDLFX">     1</i>
   <i type="int" name="NKREDLFY">     1</i>
   <i type="int" name="NKREDLFZ">     1</i>
   <i type="int" name="MAXMEM">  2800</i>
   <i type="int" name="TELESCOPE">     0</i>
   <i type="int" name="TAUPAR">     1</i>
   <i type="int" name="OMEGAPAR">    -1</i>
   <i name="LAMBDA">      1.00000000</i>
  </separator>
  <separator name="External order field" >
   <i name="OFIELD_KAPPA">      0.00000000</i>
   <v name="OFIELD_K">      0.00000000      0.00000000      0.00000000</v>
   <i name="OFIELD_Q6_NEAR">      0.00000000</i>
   <i name="OFIELD_Q6_FAR">      0.00000000</i>
   <i name="OFIELD_A">      0.00000000</i>
  </separator>
 </parameters>
 <atominfo>
  <atoms>       1 </atoms>
  <types>       1 </types>
  <array name="atoms" >
   <dimension dim="1">ion</dimension>
   <field type="string">element</field>
   <field type="int">atomtype</field>
   <set>
    <rc><c>Al</c><c>   1</c></rc>
   </set>
  </array>
  <array name="atomtypes" >
   <dimension dim="1">type</dimension>
   <field type="int">atomspertype</field>
   <field type="string">element</field>
   <field>mass</field>
   <field>valence</field>
   <field type="string">pseudopotential</field>
   <set>
    <rc><c>   1</c><c>Al</c><c>     26.98100000</c><c>      3.00000000</c><c>  PAW_PBE Al 04Jan2001                  </c></rc>
   </set>
  </array>
 </atominfo>
 <structure name="initialpos" >
  <crystal>
   <varray name="basis" >
    <v>       3.05309016       0.26992264      -1.01201698 </v>
    <v>       0.02353372       3.07416826       0.45112076 </v>
    <v>      -0.76514699       0.02330515       3.04689700 </v>
   </varray>
   <i name="volume">     26.07166505 </i>
   <varray name="rec_basis" >
    <v>       0.35886318      -0.01598972       0.09024123 </v>
    <v>      -0.03244947       0.32710260      -0.01065077 </v>
    <v>       0.12399968      -0.05374144       0.35975303 </v>
   </varray>
  </crystal>
  <varray name="positions" >
   <v>       0.92371990       0.41872333       0.93385728 </v>
  </varray>
 </structure>
 <calculation>
  <scstep>
   <time name="dav">    0.90    0.93</time>
   <time name="total">    0.91    0.94</time>
   <energy>
    <i name="alphaZ">     -0.12882990 </i>
    <i name="ewald">    -62.56495306 </i>
    <i name="hartreedc">     -0.56183291 </i>
    <i name="XCdc">    -26.92394903 </i>
    <i name="pawpsdc">     90.25524470 </i>
    <i name="pawaedc">    -58.28422728 </i>
    <i name="eentropy">      0.00063436 </i>
    <i name="bandstr">      1.36898951 </i>
    <i name="atom">     53.53580311 </i>
    <i name="e_fr_energy">     -3.30312049 </i>
    <i name="e_wo_entrp">     -3.30375485 </i>
    <i name="e_0_energy">     -3.30333194 </i>
   </energy>
  </scstep>
  <scstep>
   <time name="dav">    0.95    0.95</time>
   <time name="total">    0.96    0.96</time>
   <energy>
    <i name="alphaZ">     -0.12882990 </i>
    <i name="ewald">    -62.56495306 </i>
    <i name="hartreedc">     -0.56154415 </i>
    <i name="XCdc">    -26.92353026 </i>
    <i name="pawpsdc">     94.74464467 </i>
    <i name="pawaedc">    -62.77362733 </i>
    <i name="eentropy">      0.00063525 </i>
    <i name="bandstr">      1.36827855 </i>
    <i name="atom">     53.53580311 </i>
    <i name="e_fr_energy">     -3.30312312 </i>
    <i name="e_wo_entrp">     -3.30375837 </i>
    <i name="e_0_energy">     -3.30333487 </i>
   </energy>
  </scstep>
  <structure>
   <crystal>
    <varray name="basis" >
     <v>       3.05309016       0.26992264      -1.01201698 </v>
     <v>       0.02353372       3.07416826       0.45112076 </v>
     <v>      -0.76514699       0.02330515       3.04689700 </v>
    </varray>
    <i name="volume">     26.07166505 </i>
    <varray name="rec_basis" >
     <v>       0.35886318      -0.01598972       0.09024123 </v>
     <v>      -0.03244947       0.32710260      -0.01065077 </v>
     <v>       0.12399968      -0.05374144       0.35975303 </v>
    </varray>
   </crystal>
   <varray name="positions" >
    <v>       0.92371990       0.41872333       0.93385728 </v>
   </varray>
  </structure>
  <varray name="forces" >
   <v>       0.00000000      -0.00000000       0.00000000 </v>
  </varray>
  <varray name="stress" >
   <v>    -111.01543022      -0.68806355       1.93316005 </v>
   <v>      -0.68806351    -115.04919945      -0.32177125 </v>
   <v>       1.93316004      -0.32177123    -113.20242945 </v>
  </varray>
  <energy>
   <i name="e_fr_energy">     -3.30312312 </i>
   <i name="e_wo_entrp">     -3.30333487 </i>
   <i name="e_0_energy">      0.00063525 </i>
  </energy>
  <time name="totalsc">    1.97    2.01</time>
  <eigenvalues>
   <array>
    <dimension dim="1">band</dimension>
    <dimension dim="2">kpoint</dimension>
    <dimension dim="3">spin</dimension>
    <field>eigene</field>
    <field>occ</field>
    <set>
     <set comment="spin 1">
      <set comment="kpoint 1">
       <r>   -4.4621    1.0000 </r>
       <r>   10.2903    0.0000 </r>
       <r>   11.1627    0.0000 </r>
       <r>   12.5583    0.0000 </r>
       <r>   13.7212    0.0000 </r>
       <r>   14.1601    0.0000 </r>
       <r>   15.8305    0.0000 </r>
       <r>   18.0768    0.0000 </r>
       <r>   18.5788    0.0000 </r>
       <r>   23.2712    0.0000 </r>
       <r>   23.6146    0.0000 </r>
       <r>   24.9963    0.0000 </r>
       <r>   27.4046    0.0000 </r>
       <r>   29.0866    0.0000 </r>
       <r>   29.3561    0.0000 </r>
       <r>   32.8094    0.0000 </r>
       <r>   33.0689    0.0000 </r>
       <r>   36.9323    0.0000 </r>
       <r>   37.7522    0.0000 </r>
       <r>   40.3287    0.0000 </r>
       <r>   41.5674    0.0000 </r>
       <r>   47.8253    0.0000 </r>
       <r>   49.7031    0.0000 </r>
       <r>   51.5221    0.0000 </r>
       <r>   51.5714    0.0000 </r>
       <r>   55.7851    0.0000 </r>
       <r>   57.9182    0.0000 </r>
       <r>   58.1528    0.0000 </r>
       <r>   58.6490    0.0000 </r>
       <r>   59.8594    0.0000 </r>
       <r>   60.4064    0.0000 </r>
       <r>   63.1458    0.0000 </r>
       <r>   63.3629    0.0000 </r>
       <r>   63.9783    0.0000 </r>
       <r>   64.4945    0.0000 </r>
       <r>   65.1875    0.0000 </r>
       <r>   65.2893    0.0000 </r>
       <r>   65.9517    0.0000 </r>
       <r>   68.0609    0.0000 </r>
       <r>   69.1730    0.0000 </r>
      </set>
      <set comment="kpoint 2">
       <r>   -3.6594    1.0000 </r>
       <r>    7.8874   -0.0000 </r>
       <r>   10.3704    0.0000 </r>
       <r>   11.0874    0.0000 </r>
       <r>   12.2253    0.0000 </r>
       <r>   14.4829    0.0000 </r>
       <r>   17.9099    0.0000 </r>
       <r>   18.8972    0.0000 </r>
       <r>   21.1711    0.0000 </r>
       <r>   22.7653    0.0000 </r>
       <r>   24.3312    0.0000 </r>
       <r>   24.8544    0.0000 </r>
       <r>   27.4028    0.0000 </r>
       <r>   29.7993    0.0000 </r>
       <r>   31.6084    0.0000 </r>
       <r>   32.7190    0.0000 </r>
       <r>   34.4256    0.0000 </r>
       <r>   36.5827    0.0000 </r>
       <r>   37.4841    0.0000 </r>
       <r>   40.1297    0.0000 </r>
       <r>   44.7099    0.0000 </r>
       <r>   45.9356    0.0000 </r>
       <r>   48.0506    0.0000 </r>
       <r>   50.0742    0.0000 </r>
       <r>   52.7286    0.0000 </r>
       <r>   53.4848    0.0000 </r>
       <r>   55.1403    0.0000 </r>
       <r>   56.4764    0.0000 </r>
       <r>   58.1812    0.0000 </r>
       <r>   58.2592    0.0000 </r>
       <r>   59.3830    0.0000 </r>
       <r>   61.3051    0.0000 </r>
       <r>   61.5669    0.0000 </r>
       <r>   63.4185    0.0000 </r>
       <r>   63.7074    0.0000 </r>
       <r>   64.2672    0.0000 </r>
       <r>   65.4886    0.0000 </r>
       <r>   65.6743    0.0000 </r>
       <r>   66.5168    0.0000 </r>
       <r>   67.7189    0.0000 </r>
      </set>
      <set comment="kpoint 3">
       <r>   -1.2935    1.0000 </r>
       <r>    2.7118    1.0000 </r>
       <r>    9.7485    0.0000 </r>
       <r>   10.9688    0.0000 </r>
       <r>   12.0385    0.0000 </r>
       <r>   15.1465    0.0000 </r>
       <r>   17.0102    0.0000 </r>
       <r>   20.5460    0.0000 </r>
       <r>   20.9750    0.0000 </r>
       <r>   22.9791    0.0000 </r>
       <r>   23.4603    0.0000 </r>
       <r>   28.0035    0.0000 </r>
       <r>   29.4514    0.0000 </r>
       <r>   32.0888    0.0000 </r>
       <r>   32.6113    0.0000 </r>
       <r>   34.6985    0.0000 </r>
       <r>   36.1980    0.0000 </r>
       <r>   37.4510    0.0000 </r>
       <r>   38.4122    0.0000 </r>
       <r>   42.5180    0.0000 </r>
       <r>   43.9255    0.0000 </r>
       <r>   44.3166    0.0000 </r>
       <r>   45.5010    0.0000 </r>
       <r>   46.1908    0.0000 </r>
       <r>   49.5129    0.0000 </r>
       <r>   49.9542    0.0000 </r>
       <r>   52.6493    0.0000 </r>
       <r>   55.1828    0.0000 </r>
       <r>   56.7582    0.0000 </r>
       <r>   57.8024    0.0000 </r>
       <r>   57.9670    0.0000 </r>
       <r>   58.6062    0.0000 </r>
       <r>   61.1048    0.0000 </r>
       <r>   61.4456    0.0000 </r>
       <r>   62.4470    0.0000 </r>
       <r>   64.2720    0.0000 </r>
       <r>   64.4620    0.0000 </r>
       <r>   65.8458    0.0000 </r>
       <r>   66.4105    0.0000 </r>
       <r>   66.7935    0.0000 </r>
      </set>
      <set comment="kpoint 4">
       <r>   -3.8508    1.0000 </r>
       <r>    5.6177   -0.0000 </r>
       <r>   12.9039    0.0000 </r>
       <r>   13.6392    0.0000 </r>
       <r>   14.6672    0.0000 </r>
       <r>   15.7981    0.0000 </r>
       <r>   16.4282    0.0000 </r>
       <r>   18.7162    0.0000 </r>
       <r>   19.4848    0.0000 </r>
       <r>   20.6640    0.0000 </r>
       <r>   21.4865    0.0000 </r>
       <r>   24.8200    0.0000 </r>
       <r>   26.5423    0.0000 </r>
       <r>   27.9416    0.0000 </r>
       <r>   31.7679    0.0000 </r>
       <r>   32.5291    0.0000 </r>
       <r>   34.0481    0.0000 </r>
       <r>   36.0904    0.0000 </r>
       <r>   40.0107    0.0000 </r>
       <r>   42.7791    0.0000 </r>
       <r>   44.6242    0.0000 </r>
       <r>   47.5340    0.0000 </r>
       <r>   50.0233    0.0000 </r>
       <r>   50.8944    0.0000 </r>
       <r>   51.8395    0.0000 </r>
       <r>   53.1718    0.0000 </r>
       <r>   55.3784    0.0000 </r>
       <r>   56.3558    0.0000 </r>
       <r>   56.4688    0.0000 </r>
       <r>   58.2301    0.0000 </r>
       <r>   59.8666    0.0000 </r>
       <r>   60.4741    0.0000 </r>
       <r>   61.2267    0.0000 </r>
       <r>   63.7286    0.0000 </r>
       <r>   63.9163    0.0000 </r>
       <r>   64.3592    0.0000 </r>
       <r>   65.2832    0.0000 </r>
       <r>   66.5175    0.0000 </r>
       <r>   66.9516    0.0000 </r>
       <r>   68.0887    0.0000 </r>
      </set>
      <set comment="kpoint 5">
       <r>   -3.2478    1.0000 </r>
       <r>    6.9592   -0.0000 </r>
       <r>    9.4831    0.0000 </r>
       <r>   11.0470    0.0000 </r>
       <r>   14.3552    0.0000 </r>
       <r>   14.9065    0.0000 </r>
       <r>   17.1067    0.0000 </r>
       <r>   18.3080    0.0000 </r>
       <r>   18.6957    0.0000 </r>
       <r>   22.2029    0.0000 </r>
       <r>   23.3317    0.0000 </r>
       <r>   24.8582    0.0000 </r>
       <r>   28.5198    0.0000 </r>
       <r>   30.7489    0.0000 </r>
       <r>   32.3877    0.0000 </r>
       <r>   36.5563    0.0000 </r>
       <r>   37.6135    0.0000 </r>
       <r>   39.4437    0.0000 </r>
       <r>   40.7310    0.0000 </r>
       <r>   41.6815    0.0000 </r>
       <r>   42.4644    0.0000 </r>
       <r>   44.8880    0.0000 </r>
       <r>   45.4524    0.0000 </r>
       <r>   47.9604    0.0000 </r>
       <r>   49.2272    0.0000 </r>
       <r>   51.0581    0.0000 </r>
       <r>   52.7949    0.0000 </r>
       <r>   54.0640    0.0000 </r>
       <r>   55.0338    0.0000 </r>
       <r>   56.6268    0.0000 </r>
       <r>   58.6943    0.0000 </r>
       <r>   60.5810    0.0000 </r>
       <r>   60.9788    0.0000 </r>
       <r>   62.9009    0.0000 </r>
       <r>   63.5894    0.0000 </r>
       <r>   64.5432    0.0000 </r>
       <r>   65.3724    0.0000 </r>
       <r>   65.6971    0.0000 </r>
       <r>   66.5333    0.0000 </r>
       <r>   67.1067    0.0000 </r>
      </set>
      <set comment="kpoint 6">
       <r>   -1.0741    1.0000 </r>
       <r>    3.8260    0.1748 </r>
       <r>    9.1793   -0.0000 </r>
       <r>    9.9799    0.0000 </r>
       <r>   11.2462    0.0000 </r>
       <r>   12.9124    0.0000 </r>
       <r>   17.0734    0.0000 </r>
       <r>   18.6824    0.0000 </r>
       <r>   23.2860    0.0000 </r>
       <r>   23.7637    0.0000 </r>
       <r>   26.0025    0.0000 </r>
       <r>   28.9122    0.0000 </r>
       <r>   29.4355    0.0000 </r>
       <r>   32.3700    0.0000 </r>
       <r>   33.7882    0.0000 </r>
       <r>   34.4215    0.0000 </r>
       <r>   37.1334    0.0000 </r>
       <r>   38.6909    0.0000 </r>
       <r>   41.2417    0.0000 </r>
       <r>   42.0508    0.0000 </r>
       <r>   42.4336    0.0000 </r>
       <r>   45.1848    0.0000 </r>
       <r>   45.9003    0.0000 </r>
       <r>   46.8808    0.0000 </r>
       <r>   48.0844    0.0000 </r>
       <r>   50.3552    0.0000 </r>
       <r>   50.9152    0.0000 </r>
       <r>   52.0572    0.0000 </r>
       <r>   52.8284    0.0000 </r>
       <r>   54.3462    0.0000 </r>
       <r>   55.5844    0.0000 </r>
       <r>   56.4908    0.0000 </r>
       <r>   58.0448    0.0000 </r>
       <r>   60.8364    0.0000 </r>
       <r>   62.3518    0.0000 </r>
       <r>   63.5147    0.0000 </r>
       <r>   64.6151    0.0000 </r>
       <r>   66.0187    0.0000 </r>
       <r>   67.8781    0.0000 </r>
       <r>   68.3730    0.0000 </r>
      </set>
      <set comment="kpoint 7">
       <r>   -0.3132    1.0000 </r>
       <r>    2.7118    1.0000 </r>
       <r>    7.1433   -0.0000 </r>
       <r>   10.0364    0.0000 </r>
       <r>   12.0977    0.0000 </r>
       <r>   15.0576    0.0000 </r>
       <r>   17.3676    0.0000 </r>
       <r>   20.5775    0.0000 </r>
       <r>   23.5206    0.0000 </r>
       <r>   23.8330    0.0000 </r>
       <r>   24.9167    0.0000 </r>
       <r>   27.5481    0.0000 </r>
       <r>   29.3152    0.0000 </r>
       <r>   33.0985    0.0000 </r>
       <r>   33.2083    0.0000 </r>
       <r>   34.2309    0.0000 </r>
       <r>   35.4499    0.0000 </r>
       <r>   36.5733    0.0000 </r>
       <r>   39.1064    0.0000 </r>
       <r>   40.7274    0.0000 </r>
       <r>   42.4591    0.0000 </r>
       <r>   44.9085    0.0000 </r>
       <r>   45.7233    0.0000 </r>
       <r>   46.6012    0.0000 </r>
       <r>   48.6162    0.0000 </r>
       <r>   52.2084    0.0000 </r>
       <r>   52.7777    0.0000 </r>
       <r>   53.3002    0.0000 </r>
       <r>   56.6886    0.0000 </r>
       <r>   57.7490    0.0000 </r>
       <r>   59.0154    0.0000 </r>
       <r>   59.9575    0.0000 </r>
       <r>   60.8938    0.0000 </r>
       <r>   61.6386    0.0000 </r>
       <r>   62.6767    0.0000 </r>
       <r>   63.3264    0.0000 </r>
       <r>   64.3733    0.0000 </r>
       <r>   64.6119    0.0000 </r>
       <r>   65.6618    0.0000 </r>
       <r>   66.4893    0.0000 </r>
      </set>
      <set comment="kpoint 8">
       <r>   -2.8536    1.0000 </r>
       <r>    5.5460   -0.0000 </r>
       <r>    7.9300   -0.0000 </r>
       <r>   11.4477    0.0000 </r>
       <r>   13.2860    0.0000 </r>
       <r>   17.8815    0.0000 </r>
       <r>   18.3925    0.0000 </r>
       <r>   19.7265    0.0000 </r>
       <r>   20.6817    0.0000 </r>
       <r>   23.1794    0.0000 </r>
       <r>   25.4099    0.0000 </r>
       <r>   25.6531    0.0000 </r>
       <r>   27.1223    0.0000 </r>
       <r>   28.1124    0.0000 </r>
       <r>   29.7322    0.0000 </r>
       <r>   31.3821    0.0000 </r>
       <r>   32.1014    0.0000 </r>
       <r>   37.6688    0.0000 </r>
       <r>   39.9012    0.0000 </r>
       <r>   40.5003    0.0000 </r>
       <r>   43.1696    0.0000 </r>
       <r>   46.5714    0.0000 </r>
       <r>   49.8383    0.0000 </r>
       <r>   52.3221    0.0000 </r>
       <r>   52.8906    0.0000 </r>
       <r>   54.6967    0.0000 </r>
       <r>   56.2966    0.0000 </r>
       <r>   56.7273    0.0000 </r>
       <r>   56.9934    0.0000 </r>
       <r>   58.3110    0.0000 </r>
       <r>   58.7246    0.0000 </r>
       <r>   59.4276    0.0000 </r>
       <r>   61.9757    0.0000 </r>
       <r>   62.2978    0.0000 </r>
       <r>   62.8726    0.0000 </r>
       <r>   63.7944    0.0000 </r>
       <r>   65.0024    0.0000 </r>
       <r>   65.7257    0.0000 </r>
       <r>   66.0998    0.0000 </r>
       <r>   67.4249    0.0000 </r>
      </set>
      <set comment="kpoint 9">
       <r>   -2.1412    1.0000 </r>
       <r>    1.5780    1.0000 </r>
       <r>   13.8994    0.0000 </r>
       <r>   14.2043    0.0000 </r>
       <r>   15.5174    0.0000 </r>
       <r>   16.3299    0.0000 </r>
       <r>   17.7345    0.0000 </r>
       <r>   18.3898    0.0000 </r>
       <r>   19.6587    0.0000 </r>
       <r>   19.8375    0.0000 </r>
       <r>   22.1737    0.0000 </r>
       <r>   23.8600    0.0000 </r>
       <r>   24.4873    0.0000 </r>
       <r>   27.8804    0.0000 </r>
       <r>   28.4052    0.0000 </r>
       <r>   35.3657    0.0000 </r>
       <r>   37.1468    0.0000 </r>
       <r>   38.3521    0.0000 </r>
       <r>   42.8000    0.0000 </r>
       <r>   44.2349    0.0000 </r>
       <r>   46.6143    0.0000 </r>
       <r>   47.4144    0.0000 </r>
       <r>   49.0925    0.0000 </r>
       <r>   49.6239    0.0000 </r>
       <r>   51.2451    0.0000 </r>
       <r>   52.5817    0.0000 </r>
       <r>   53.2842    0.0000 </r>
       <r>   55.3889    0.0000 </r>
       <r>   56.1818    0.0000 </r>
       <r>   57.2066    0.0000 </r>
       <r>   57.5579    0.0000 </r>
       <r>   58.3071    0.0000 </r>
       <r>   59.1962    0.0000 </r>
       <r>   59.7328    0.0000 </r>
       <r>   62.1492    0.0000 </r>
       <r>   63.0892    0.0000 </r>
       <r>   66.2626    0.0000 </r>
       <r>   66.7259    0.0000 </r>
       <r>   67.1067    0.0000 </r>
       <r>   69.0882    0.0000 </r>
      </set>
      <set comment="kpoint 10">
       <r>   -1.6877    1.0000 </r>
       <r>    2.8631    1.0000 </r>
       <r>   10.3722    0.0000 </r>
       <r>   11.9232    0.0000 </r>
       <r>   13.0585    0.0000 </r>
       <r>   14.6199    0.0000 </r>
       <r>   18.0941    0.0000 </r>
       <r>   19.2045    0.0000 </r>
       <r>   19.9372    0.0000 </r>
       <r>   21.3845    0.0000 </r>
       <r>   24.2342    0.0000 </r>
       <r>   24.4256    0.0000 </r>
       <r>   27.3870    0.0000 </r>
       <r>   31.3991    0.0000 </r>
       <r>   35.1052    0.0000 </r>
       <r>   36.5916    0.0000 </r>
       <r>   37.4112    0.0000 </r>
       <r>   39.5190    0.0000 </r>
       <r>   41.9451    0.0000 </r>
       <r>   42.3335    0.0000 </r>
       <r>   43.6171    0.0000 </r>
       <r>   44.7073    0.0000 </r>
       <r>   45.9542    0.0000 </r>
       <r>   46.6548    0.0000 </r>
       <r>   47.7957    0.0000 </r>
       <r>   50.7482    0.0000 </r>
       <r>   53.2666    0.0000 </r>
       <r>   54.3715    0.0000 </r>
       <r>   55.5685    0.0000 </r>
       <r>   55.9005    0.0000 </r>
       <r>   56.6872    0.0000 </r>
       <r>   57.2507    0.0000 </r>
       <r>   58.6072    0.0000 </r>
       <r>   61.0544    0.0000 </r>
       <r>   62.5547    0.0000 </r>
       <r>   63.7772    0.0000 </r>
       <r>   64.3918    0.0000 </r>
       <r>   66.4224    0.0000 </r>
       <r>   67.5546    0.0000 </r>
       <r>   67.9015    0.0000 </r>
      </set>
      <set comment="kpoint 11">
       <r>    0.3111    1.0000 </r>
       <r>    5.2599   -0.0000 </r>
       <r>    5.5265   -0.0000 </r>
       <r>    8.0907   -0.0000 </r>
       <r>   10.7424    0.0000 </r>
       <r>   13.1915    0.0000 </r>
       <r>   16.3930    0.0000 </r>
       <r>   19.1628    0.0000 </r>
       <r>   24.0358    0.0000 </r>
       <r>   24.6122    0.0000 </r>
       <r>   28.3999    0.0000 </r>
       <r>   30.9171    0.0000 </r>
       <r>   32.3643    0.0000 </r>
       <r>   33.3634    0.0000 </r>
       <r>   35.1337    0.0000 </r>
       <r>   35.4635    0.0000 </r>
       <r>   35.5658    0.0000 </r>
       <r>   38.2766    0.0000 </r>
       <r>   39.7856    0.0000 </r>
       <r>   41.6224    0.0000 </r>
       <r>   42.9931    0.0000 </r>
       <r>   43.5925    0.0000 </r>
       <r>   44.8740    0.0000 </r>
       <r>   45.3780    0.0000 </r>
       <r>   46.2097    0.0000 </r>
       <r>   47.4055    0.0000 </r>
       <r>   49.6221    0.0000 </r>
       <r>   52.9916    0.0000 </r>
       <r>   53.6293    0.0000 </r>
       <r>   56.2011    0.0000 </r>
       <r>   56.7865    0.0000 </r>
       <r>   57.7039    0.0000 </r>
       <r>   58.0993    0.0000 </r>
       <r>   59.9445    0.0000 </r>
       <r>   60.5236    0.0000 </r>
       <r>   62.0079    0.0000 </r>
       <r>   63.3580    0.0000 </r>
       <r>   64.1481    0.0000 </r>
       <r>   64.3007    0.0000 </r>
       <r>   66.9728    0.0000 </r>
      </set>
      <set comment="kpoint 12">
       <r>    1.5363    1.0000 </r>
       <r>    3.3013    1.0040 </r>
       <r>    4.3105   -0.0002 </r>
       <r>   10.2437    0.0000 </r>
       <r>   10.9198    0.0000 </r>
       <r>   13.1672    0.0000 </r>
       <r>   15.7966    0.0000 </r>
       <r>   20.1280    0.0000 </r>
       <r>   24.1513    0.0000 </r>
       <r>   25.8282    0.0000 </r>
       <r>   29.4177    0.0000 </r>
       <r>   30.0945    0.0000 </r>
       <r>   32.1004    0.0000 </r>
       <r>   33.1416    0.0000 </r>
       <r>   33.4230    0.0000 </r>
       <r>   34.8052    0.0000 </r>
       <r>   35.4893    0.0000 </r>
       <r>   36.1544    0.0000 </r>
       <r>   38.2311    0.0000 </r>
       <r>   40.5944    0.0000 </r>
       <r>   41.4013    0.0000 </r>
       <r>   43.8751    0.0000 </r>
       <r>   44.7990    0.0000 </r>
       <r>   46.7213    0.0000 </r>
       <r>   48.1679    0.0000 </r>
       <r>   49.9615    0.0000 </r>
       <r>   52.2121    0.0000 </r>
       <r>   54.1518    0.0000 </r>
       <r>   55.0455    0.0000 </r>
       <r>   55.8477    0.0000 </r>
       <r>   57.1841    0.0000 </r>
       <r>   57.8735    0.0000 </r>
       <r>   58.7224    0.0000 </r>
       <r>   60.1336    0.0000 </r>
       <r>   62.0320    0.0000 </r>
       <r>   62.6714    0.0000 </r>
       <r>   63.2694    0.0000 </r>
       <r>   65.3442    0.0000 </r>
       <r>   66.3184    0.0000 </r>
       <r>   66.7909    0.0000 </r>
      </set>
      <set comment="kpoint 13">
       <r>   -1.0398    1.0000 </r>
       <r>    1.8388    1.0000 </r>
       <r>    8.8151   -0.0000 </r>
       <r>   12.1807    0.0000 </r>
       <r>   14.3352    0.0000 </r>
       <r>   15.5312    0.0000 </r>
       <r>   17.1582    0.0000 </r>
       <r>   19.1914    0.0000 </r>
       <r>   21.7872    0.0000 </r>
       <r>   22.9196    0.0000 </r>
       <r>   24.5983    0.0000 </r>
       <r>   25.9845    0.0000 </r>
       <r>   27.5800    0.0000 </r>
       <r>   29.9276    0.0000 </r>
       <r>   31.2442    0.0000 </r>
       <r>   33.8438    0.0000 </r>
       <r>   34.6790    0.0000 </r>
       <r>   35.6453    0.0000 </r>
       <r>   40.9625    0.0000 </r>
       <r>   43.6187    0.0000 </r>
       <r>   44.8837    0.0000 </r>
       <r>   46.9510    0.0000 </r>
       <r>   48.3404    0.0000 </r>
       <r>   48.8627    0.0000 </r>
       <r>   49.5654    0.0000 </r>
       <r>   51.4669    0.0000 </r>
       <r>   53.8998    0.0000 </r>
       <r>   55.8744    0.0000 </r>
       <r>   56.2544    0.0000 </r>
       <r>   57.6910    0.0000 </r>
       <r>   58.6677    0.0000 </r>
       <r>   59.4521    0.0000 </r>
       <r>   61.0273    0.0000 </r>
       <r>   61.2632    0.0000 </r>
       <r>   61.8237    0.0000 </r>
       <r>   63.7596    0.0000 </r>
       <r>   64.8103    0.0000 </r>
       <r>   65.3812    0.0000 </r>
       <r>   66.1853    0.0000 </r>
       <r>   66.6601    0.0000 </r>
      </set>
      <set comment="kpoint 14">
       <r>   -3.5969    1.0000 </r>
       <r>    8.6114   -0.0000 </r>
       <r>   10.1428    0.0000 </r>
       <r>   10.3631    0.0000 </r>
       <r>   11.8832    0.0000 </r>
       <r>   14.3520    0.0000 </r>
       <r>   17.9654    0.0000 </r>
       <r>   18.3371    0.0000 </r>
       <r>   21.7183    0.0000 </r>
       <r>   22.5342    0.0000 </r>
       <r>   25.1576    0.0000 </r>
       <r>   26.3493    0.0000 </r>
       <r>   28.0404    0.0000 </r>
       <r>   28.5562    0.0000 </r>
       <r>   31.0866    0.0000 </r>
       <r>   32.8699    0.0000 </r>
       <r>   33.5129    0.0000 </r>
       <r>   35.2703    0.0000 </r>
       <r>   38.9034    0.0000 </r>
       <r>   41.7216    0.0000 </r>
       <r>   43.8682    0.0000 </r>
       <r>   45.5929    0.0000 </r>
       <r>   47.4423    0.0000 </r>
       <r>   51.3424    0.0000 </r>
       <r>   51.8962    0.0000 </r>
       <r>   52.7097    0.0000 </r>
       <r>   52.9277    0.0000 </r>
       <r>   55.8716    0.0000 </r>
       <r>   57.8726    0.0000 </r>
       <r>   60.5944    0.0000 </r>
       <r>   60.7271    0.0000 </r>
       <r>   62.2172    0.0000 </r>
       <r>   62.7598    0.0000 </r>
       <r>   63.4312    0.0000 </r>
       <r>   64.7933    0.0000 </r>
       <r>   64.9876    0.0000 </r>
       <r>   66.0212    0.0000 </r>
       <r>   66.7078    0.0000 </r>
       <r>   67.2526    0.0000 </r>
       <r>   68.1318    0.0000 </r>
      </set>
      <set comment="kpoint 15">
       <r>   -1.8985    1.0000 </r>
       <r>    5.1849   -0.0000 </r>
       <r>    6.5130   -0.0000 </r>
       <r>   10.9617    0.0000 </r>
       <r>   14.7590    0.0000 </r>
       <r>   15.7717    0.0000 </r>
       <r>   17.1677    0.0000 </r>
       <r>   18.3054    0.0000 </r>
       <r>   18.8412    0.0000 </r>
       <r>   23.6556    0.0000 </r>
       <r>   25.8077    0.0000 </r>
       <r>   27.9312    0.0000 </r>
       <r>   30.3621    0.0000 </r>
       <r>   31.1869    0.0000 </r>
       <r>   31.9244    0.0000 </r>
       <r>   34.2531    0.0000 </r>
       <r>   35.7066    0.0000 </r>
       <r>   36.8302    0.0000 </r>
       <r>   38.9786    0.0000 </r>
       <r>   40.7120    0.0000 </r>
       <r>   41.9183    0.0000 </r>
       <r>   43.2263    0.0000 </r>
       <r>   44.7212    0.0000 </r>
       <r>   50.4353    0.0000 </r>
       <r>   52.0513    0.0000 </r>
       <r>   52.7255    0.0000 </r>
       <r>   54.2692    0.0000 </r>
       <r>   55.9686    0.0000 </r>
       <r>   56.2910    0.0000 </r>
       <r>   57.9580    0.0000 </r>
       <r>   58.3778    0.0000 </r>
       <r>   59.0420    0.0000 </r>
       <r>   60.8056    0.0000 </r>
       <r>   61.7854    0.0000 </r>
       <r>   62.4990    0.0000 </r>
       <r>   63.0115    0.0000 </r>
       <r>   63.8430    0.0000 </r>
       <r>   64.6088    0.0000 </r>
       <r>   66.0983    0.0000 </r>
       <r>   66.6982    0.0000 </r>
      </set>
      <set comment="kpoint 16">
       <r>    0.5924    1.0000 </r>
       <r>    1.6217    1.0000 </r>
       <r>    5.1808   -0.0000 </r>
       <r>   12.6773    0.0000 </r>
       <r>   14.3969    0.0000 </r>
       <r>   16.3415    0.0000 </r>
       <r>   17.4488    0.0000 </r>
       <r>   18.5660    0.0000 </r>
       <r>   20.6174    0.0000 </r>
       <r>   22.3665    0.0000 </r>
       <r>   24.2745    0.0000 </r>
       <r>   26.4437    0.0000 </r>
       <r>   28.8222    0.0000 </r>
       <r>   32.6547    0.0000 </r>
       <r>   34.7339    0.0000 </r>
       <r>   35.9940    0.0000 </r>
       <r>   37.6260    0.0000 </r>
       <r>   38.5198    0.0000 </r>
       <r>   40.3314    0.0000 </r>
       <r>   41.7924    0.0000 </r>
       <r>   42.7367    0.0000 </r>
       <r>   44.5904    0.0000 </r>
       <r>   46.2172    0.0000 </r>
       <r>   47.2597    0.0000 </r>
       <r>   49.5653    0.0000 </r>
       <r>   50.6275    0.0000 </r>
       <r>   51.5715    0.0000 </r>
       <r>   51.6974    0.0000 </r>
       <r>   52.1472    0.0000 </r>
       <r>   55.2210    0.0000 </r>
       <r>   55.9334    0.0000 </r>
       <r>   57.8826    0.0000 </r>
       <r>   59.4811    0.0000 </r>
       <r>   61.1648    0.0000 </r>
       <r>   62.5039    0.0000 </r>
       <r>   62.9240    0.0000 </r>
       <r>   63.9800    0.0000 </r>
       <r>   65.8177    0.0000 </r>
       <r>   65.9021    0.0000 </r>
       <r>   68.2854    0.0000 </r>
      </set>
      <set comment="kpoint 17">
       <r>   -2.2295    1.0000 </r>
       <r>    5.4311   -0.0000 </r>
       <r>    6.1777   -0.0000 </r>
       <r>   12.0058    0.0000 </r>
       <r>   14.2024    0.0000 </r>
       <r>   16.9849    0.0000 </r>
       <r>   17.6557    0.0000 </r>
       <r>   18.0537    0.0000 </r>
       <r>   20.2228    0.0000 </r>
       <r>   23.4358    0.0000 </r>
       <r>   25.5482    0.0000 </r>
       <r>   26.2736    0.0000 </r>
       <r>   27.7423    0.0000 </r>
       <r>   29.2999    0.0000 </r>
       <r>   30.1170    0.0000 </r>
       <r>   32.4771    0.0000 </r>
       <r>   38.0219    0.0000 </r>
       <r>   40.0588    0.0000 </r>
       <r>   41.7391    0.0000 </r>
       <r>   43.0530    0.0000 </r>
       <r>   44.1110    0.0000 </r>
       <r>   45.5020    0.0000 </r>
       <r>   46.4800    0.0000 </r>
       <r>   47.6276    0.0000 </r>
       <r>   49.6734    0.0000 </r>
       <r>   51.0441    0.0000 </r>
       <r>   51.7369    0.0000 </r>
       <r>   53.5283    0.0000 </r>
       <r>   53.9384    0.0000 </r>
       <r>   54.6658    0.0000 </r>
       <r>   56.6305    0.0000 </r>
       <r>   58.7483    0.0000 </r>
       <r>   61.5008    0.0000 </r>
       <r>   61.8066    0.0000 </r>
       <r>   62.7890    0.0000 </r>
       <r>   63.2848    0.0000 </r>
       <r>   63.8258    0.0000 </r>
       <r>   65.4982    0.0000 </r>
       <r>   66.0820    0.0000 </r>
       <r>   67.2542    0.0000 </r>
      </set>
      <set comment="kpoint 18">
       <r>   -3.7084    1.0000 </r>
       <r>    7.2751   -0.0000 </r>
       <r>   10.7572    0.0000 </r>
       <r>   11.8303    0.0000 </r>
       <r>   12.1078    0.0000 </r>
       <r>   14.6028    0.0000 </r>
       <r>   18.6773    0.0000 </r>
       <r>   19.6314    0.0000 </r>
       <r>   20.5726    0.0000 </r>
       <r>   22.4318    0.0000 </r>
       <r>   23.2946    0.0000 </r>
       <r>   24.1787    0.0000 </r>
       <r>   26.3677    0.0000 </r>
       <r>   29.7949    0.0000 </r>
       <r>   30.5068    0.0000 </r>
       <r>   34.7115    0.0000 </r>
       <r>   35.4867    0.0000 </r>
       <r>   37.0266    0.0000 </r>
       <r>   39.3842    0.0000 </r>
       <r>   41.4452    0.0000 </r>
       <r>   41.7665    0.0000 </r>
       <r>   44.8652    0.0000 </r>
       <r>   46.3610    0.0000 </r>
       <r>   51.0896    0.0000 </r>
       <r>   51.8471    0.0000 </r>
       <r>   52.7887    0.0000 </r>
       <r>   54.5827    0.0000 </r>
       <r>   57.7609    0.0000 </r>
       <r>   58.1448    0.0000 </r>
       <r>   58.8783    0.0000 </r>
       <r>   59.1290    0.0000 </r>
       <r>   61.1740    0.0000 </r>
       <r>   61.8133    0.0000 </r>
       <r>   62.8446    0.0000 </r>
       <r>   63.6360    0.0000 </r>
       <r>   64.5982    0.0000 </r>
       <r>   65.1865    0.0000 </r>
       <r>   66.1472    0.0000 </r>
       <r>   67.1616    0.0000 </r>
       <r>   68.1038    0.0000 </r>
      </set>
      <set comment="kpoint 19">
       <r>   -3.2701    1.0000 </r>
       <r>    7.3290   -0.0000 </r>
       <r>   10.5172    0.0000 </r>
       <r>   10.9849    0.0000 </r>
       <r>   13.3003    0.0000 </r>
       <r>   14.5634    0.0000 </r>
       <r>   16.6427    0.0000 </r>
       <r>   17.9224    0.0000 </r>
       <r>   18.5523    0.0000 </r>
       <r>   20.6966    0.0000 </r>
       <r>   22.5606    0.0000 </r>
       <r>   25.7318    0.0000 </r>
       <r>   31.1710    0.0000 </r>
       <r>   32.2538    0.0000 </r>
       <r>   34.0831    0.0000 </r>
       <r>   36.3673    0.0000 </r>
       <r>   37.9978    0.0000 </r>
       <r>   39.0621    0.0000 </r>
       <r>   39.8848    0.0000 </r>
       <r>   41.6271    0.0000 </r>
       <r>   43.4001    0.0000 </r>
       <r>   43.9161    0.0000 </r>
       <r>   44.6188    0.0000 </r>
       <r>   47.3266    0.0000 </r>
       <r>   49.0147    0.0000 </r>
       <r>   50.8908    0.0000 </r>
       <r>   52.0707    0.0000 </r>
       <r>   52.8845    0.0000 </r>
       <r>   54.5341    0.0000 </r>
       <r>   55.9916    0.0000 </r>
       <r>   59.8989    0.0000 </r>
       <r>   60.7668    0.0000 </r>
       <r>   60.9379    0.0000 </r>
       <r>   62.3620    0.0000 </r>
       <r>   64.0049    0.0000 </r>
       <r>   64.6975    0.0000 </r>
       <r>   65.0170    0.0000 </r>
       <r>   66.2004    0.0000 </r>
       <r>   67.3154    0.0000 </r>
       <r>   68.9605    0.0000 </r>
      </set>
      <set comment="kpoint 20">
       <r>   -1.7696    1.0000 </r>
       <r>    6.2194   -0.0000 </r>
       <r>    7.7168   -0.0000 </r>
       <r>    9.9899    0.0000 </r>
       <r>   12.4351    0.0000 </r>
       <r>   14.3028    0.0000 </r>
       <r>   15.8813    0.0000 </r>
       <r>   16.2792    0.0000 </r>
       <r>   18.9612    0.0000 </r>
       <r>   25.7906    0.0000 </r>
       <r>   27.5608    0.0000 </r>
       <r>   30.2645    0.0000 </r>
       <r>   31.1168    0.0000 </r>
       <r>   31.8471    0.0000 </r>
       <r>   33.7405    0.0000 </r>
       <r>   35.2123    0.0000 </r>
       <r>   37.0302    0.0000 </r>
       <r>   38.9423    0.0000 </r>
       <r>   40.6272    0.0000 </r>
       <r>   41.3176    0.0000 </r>
       <r>   43.0677    0.0000 </r>
       <r>   43.6760    0.0000 </r>
       <r>   45.9674    0.0000 </r>
       <r>   46.3799    0.0000 </r>
       <r>   49.3225    0.0000 </r>
       <r>   50.1637    0.0000 </r>
       <r>   51.1004    0.0000 </r>
       <r>   52.4320    0.0000 </r>
       <r>   52.9981    0.0000 </r>
       <r>   53.8595    0.0000 </r>
       <r>   54.6362    0.0000 </r>
       <r>   56.9766    0.0000 </r>
       <r>   58.8492    0.0000 </r>
       <r>   60.5520    0.0000 </r>
       <r>   62.1529    0.0000 </r>
       <r>   63.0670    0.0000 </r>
       <r>   64.6458    0.0000 </r>
       <r>   64.9532    0.0000 </r>
       <r>   66.5978    0.0000 </r>
       <r>   67.9227    0.0000 </r>
      </set>
      <set comment="kpoint 21">
       <r>    1.0629    1.0000 </r>
       <r>    1.9768    1.0000 </r>
       <r>    6.3304   -0.0000 </r>
       <r>    9.4057    0.0000 </r>
       <r>   12.5819    0.0000 </r>
       <r>   14.3588    0.0000 </r>
       <r>   16.1588    0.0000 </r>
       <r>   19.4447    0.0000 </r>
       <r>   22.4254    0.0000 </r>
       <r>   24.7402    0.0000 </r>
       <r>   28.1370    0.0000 </r>
       <r>   29.2010    0.0000 </r>
       <r>   31.5168    0.0000 </r>
       <r>   32.8902    0.0000 </r>
       <r>   33.1188    0.0000 </r>
       <r>   34.5789    0.0000 </r>
       <r>   34.8244    0.0000 </r>
       <r>   38.7241    0.0000 </r>
       <r>   40.0453    0.0000 </r>
       <r>   41.8689    0.0000 </r>
       <r>   43.1727    0.0000 </r>
       <r>   44.0312    0.0000 </r>
       <r>   45.3307    0.0000 </r>
       <r>   47.3009    0.0000 </r>
       <r>   48.7984    0.0000 </r>
       <r>   50.0935    0.0000 </r>
       <r>   50.5089    0.0000 </r>
       <r>   52.5577    0.0000 </r>
       <r>   53.1473    0.0000 </r>
       <r>   55.1199    0.0000 </r>
       <r>   56.1841    0.0000 </r>
       <r>   56.5650    0.0000 </r>
       <r>   57.4544    0.0000 </r>
       <r>   59.4687    0.0000 </r>
       <r>   60.1144    0.0000 </r>
       <r>   61.2324    0.0000 </r>
       <r>   61.4015    0.0000 </r>
       <r>   63.9440    0.0000 </r>
       <r>   64.7636    0.0000 </r>
       <r>   68.8157    0.0000 </r>
      </set>
      <set comment="kpoint 22">
       <r>   -1.5099    1.0000 </r>
       <r>    5.6704   -0.0000 </r>
       <r>    6.4677   -0.0000 </r>
       <r>    7.7326   -0.0000 </r>
       <r>   13.4763    0.0000 </r>
       <r>   17.1313    0.0000 </r>
       <r>   19.1878    0.0000 </r>
       <r>   19.2978    0.0000 </r>
       <r>   21.3840    0.0000 </r>
       <r>   23.2023    0.0000 </r>
       <r>   24.7975    0.0000 </r>
       <r>   28.1489    0.0000 </r>
       <r>   29.3683    0.0000 </r>
       <r>   30.8723    0.0000 </r>
       <r>   31.3291    0.0000 </r>
       <r>   33.5605    0.0000 </r>
       <r>   34.9439    0.0000 </r>
       <r>   36.9954    0.0000 </r>
       <r>   39.8910    0.0000 </r>
       <r>   42.4727    0.0000 </r>
       <r>   43.2429    0.0000 </r>
       <r>   45.3538    0.0000 </r>
       <r>   48.3720    0.0000 </r>
       <r>   49.4092    0.0000 </r>
       <r>   49.8824    0.0000 </r>
       <r>   50.8897    0.0000 </r>
       <r>   51.7941    0.0000 </r>
       <r>   53.1759    0.0000 </r>
       <r>   53.4942    0.0000 </r>
       <r>   54.9345    0.0000 </r>
       <r>   56.2170    0.0000 </r>
       <r>   58.0208    0.0000 </r>
       <r>   58.8829    0.0000 </r>
       <r>   59.2791    0.0000 </r>
       <r>   61.7589    0.0000 </r>
       <r>   63.2363    0.0000 </r>
       <r>   64.9088    0.0000 </r>
       <r>   65.6002    0.0000 </r>
       <r>   66.8673    0.0000 </r>
       <r>   67.9604    0.0000 </r>
      </set>
      <set comment="kpoint 23">
       <r>   -3.1822    1.0000 </r>
       <r>    6.4800   -0.0000 </r>
       <r>    8.4659   -0.0000 </r>
       <r>   11.5931    0.0000 </r>
       <r>   14.7615    0.0000 </r>
       <r>   15.7601    0.0000 </r>
       <r>   17.5918    0.0000 </r>
       <r>   18.6008    0.0000 </r>
       <r>   19.1747    0.0000 </r>
       <r>   22.6115    0.0000 </r>
       <r>   23.1928    0.0000 </r>
       <r>   25.5270    0.0000 </r>
       <r>   27.5553    0.0000 </r>
       <r>   30.0222    0.0000 </r>
       <r>   31.3593    0.0000 </r>
       <r>   34.2854    0.0000 </r>
       <r>   36.5227    0.0000 </r>
       <r>   38.1948    0.0000 </r>
       <r>   40.8019    0.0000 </r>
       <r>   42.4439    0.0000 </r>
       <r>   42.4669    0.0000 </r>
       <r>   45.0079    0.0000 </r>
       <r>   47.6298    0.0000 </r>
       <r>   49.3403    0.0000 </r>
       <r>   49.8797    0.0000 </r>
       <r>   52.0523    0.0000 </r>
       <r>   52.6492    0.0000 </r>
       <r>   54.4035    0.0000 </r>
       <r>   56.3536    0.0000 </r>
       <r>   57.6314    0.0000 </r>
       <r>   58.3992    0.0000 </r>
       <r>   59.1501    0.0000 </r>
       <r>   61.5605    0.0000 </r>
       <r>   61.7239    0.0000 </r>
       <r>   62.7747    0.0000 </r>
       <r>   64.0711    0.0000 </r>
       <r>   64.7028    0.0000 </r>
       <r>   65.3077    0.0000 </r>
       <r>   66.4800    0.0000 </r>
       <r>   67.5439    0.0000 </r>
      </set>
      <set comment="kpoint 24">
       <r>   -1.7808    1.0000 </r>
       <r>    3.1568    1.0001 </r>
       <r>   10.6266    0.0000 </r>
       <r>   12.2011    0.0000 </r>
       <r>   13.7945    0.0000 </r>
       <r>   14.7167    0.0000 </r>
       <r>   16.2355    0.0000 </r>
       <r>   18.3585    0.0000 </r>
       <r>   18.6397    0.0000 </r>
       <r>   20.7602    0.0000 </r>
       <r>   24.6484    0.0000 </r>
       <r>   26.0177    0.0000 </r>
       <r>   27.9457    0.0000 </r>
       <r>   30.4370    0.0000 </r>
       <r>   36.9154    0.0000 </r>
       <r>   37.2645    0.0000 </r>
       <r>   39.5197    0.0000 </r>
       <r>   40.4105    0.0000 </r>
       <r>   41.9188    0.0000 </r>
       <r>   42.7129    0.0000 </r>
       <r>   44.1449    0.0000 </r>
       <r>   45.5891    0.0000 </r>
       <r>   45.9229    0.0000 </r>
       <r>   46.6996    0.0000 </r>
       <r>   47.9855    0.0000 </r>
       <r>   49.8976    0.0000 </r>
       <r>   50.7440    0.0000 </r>
       <r>   51.6765    0.0000 </r>
       <r>   53.7604    0.0000 </r>
       <r>   54.2243    0.0000 </r>
       <r>   55.5456    0.0000 </r>
       <r>   58.4602    0.0000 </r>
       <r>   60.2738    0.0000 </r>
       <r>   61.0691    0.0000 </r>
       <r>   62.2883    0.0000 </r>
       <r>   63.8402    0.0000 </r>
       <r>   64.0006    0.0000 </r>
       <r>   64.8974    0.0000 </r>
       <r>   66.7972    0.0000 </r>
       <r>   68.0062    0.0000 </r>
      </set>
      <set comment="kpoint 25">
       <r>   -0.4619    1.0000 </r>
       <r>    5.1957   -0.0000 </r>
       <r>    8.0905   -0.0000 </r>
       <r>    8.4857   -0.0000 </r>
       <r>   10.1554    0.0000 </r>
       <r>   12.3269    0.0000 </r>
       <r>   16.8810    0.0000 </r>
       <r>   18.5302    0.0000 </r>
       <r>   22.4007    0.0000 </r>
       <r>   24.1607    0.0000 </r>
       <r>   25.6066    0.0000 </r>
       <r>   29.8031    0.0000 </r>
       <r>   31.3695    0.0000 </r>
       <r>   34.3620    0.0000 </r>
       <r>   36.0898    0.0000 </r>
       <r>   37.5037    0.0000 </r>
       <r>   38.8442    0.0000 </r>
       <r>   41.0143    0.0000 </r>
       <r>   42.0809    0.0000 </r>
       <r>   42.3534    0.0000 </r>
       <r>   43.4395    0.0000 </r>
       <r>   43.8588    0.0000 </r>
       <r>   44.6220    0.0000 </r>
       <r>   46.0255    0.0000 </r>
       <r>   46.3418    0.0000 </r>
       <r>   48.4378    0.0000 </r>
       <r>   49.1020    0.0000 </r>
       <r>   51.0217    0.0000 </r>
       <r>   51.4613    0.0000 </r>
       <r>   53.0127    0.0000 </r>
       <r>   53.1193    0.0000 </r>
       <r>   55.5554    0.0000 </r>
       <r>   57.1436    0.0000 </r>
       <r>   59.4303    0.0000 </r>
       <r>   60.2755    0.0000 </r>
       <r>   61.5527    0.0000 </r>
       <r>   63.2924    0.0000 </r>
       <r>   64.6988    0.0000 </r>
       <r>   65.7454    0.0000 </r>
       <r>   69.3752    0.0000 </r>
      </set>
      <set comment="kpoint 26">
       <r>    2.3252    1.0000 </r>
       <r>    3.5734    0.9996 </r>
       <r>    5.7171   -0.0000 </r>
       <r>    7.6772   -0.0000 </r>
       <r>    9.4269    0.0000 </r>
       <r>   10.8305    0.0000 </r>
       <r>   16.9790    0.0000 </r>
       <r>   23.0510    0.0000 </r>
       <r>   24.8833    0.0000 </r>
       <r>   25.6191    0.0000 </r>
       <r>   27.5952    0.0000 </r>
       <r>   30.8739    0.0000 </r>
       <r>   32.3753    0.0000 </r>
       <r>   33.3351    0.0000 </r>
       <r>   34.7030    0.0000 </r>
       <r>   36.0476    0.0000 </r>
       <r>   37.3601    0.0000 </r>
       <r>   39.3185    0.0000 </r>
       <r>   40.2402    0.0000 </r>
       <r>   40.8870    0.0000 </r>
       <r>   41.6452    0.0000 </r>
       <r>   41.9717    0.0000 </r>
       <r>   43.5889    0.0000 </r>
       <r>   45.5992    0.0000 </r>
       <r>   47.4793    0.0000 </r>
       <r>   49.2809    0.0000 </r>
       <r>   50.2833    0.0000 </r>
       <r>   51.2313    0.0000 </r>
       <r>   52.3619    0.0000 </r>
       <r>   53.8276    0.0000 </r>
       <r>   54.5528    0.0000 </r>
       <r>   55.1397    0.0000 </r>
       <r>   56.2452    0.0000 </r>
       <r>   59.8709    0.0000 </r>
       <r>   61.2592    0.0000 </r>
       <r>   61.5918    0.0000 </r>
       <r>   63.6244    0.0000 </r>
       <r>   64.7180    0.0000 </r>
       <r>   65.2999    0.0000 </r>
       <r>   67.8357    0.0000 </r>
      </set>
      <set comment="kpoint 27">
       <r>    0.2659    1.0000 </r>
       <r>    3.3382    1.0076 </r>
       <r>    6.8477   -0.0000 </r>
       <r>    8.1532   -0.0000 </r>
       <r>   10.6886    0.0000 </r>
       <r>   14.7405    0.0000 </r>
       <r>   17.7821    0.0000 </r>
       <r>   19.6731    0.0000 </r>
       <r>   24.9240    0.0000 </r>
       <r>   25.5012    0.0000 </r>
       <r>   27.5222    0.0000 </r>
       <r>   29.3981    0.0000 </r>
       <r>   31.1617    0.0000 </r>
       <r>   31.7370    0.0000 </r>
       <r>   32.9863    0.0000 </r>
       <r>   33.8011    0.0000 </r>
       <r>   36.3633    0.0000 </r>
       <r>   36.4973    0.0000 </r>
       <r>   38.7715    0.0000 </r>
       <r>   39.3362    0.0000 </r>
       <r>   41.6751    0.0000 </r>
       <r>   42.0028    0.0000 </r>
       <r>   45.0485    0.0000 </r>
       <r>   47.2242    0.0000 </r>
       <r>   48.5752    0.0000 </r>
       <r>   51.2041    0.0000 </r>
       <r>   52.6428    0.0000 </r>
       <r>   53.7875    0.0000 </r>
       <r>   55.2308    0.0000 </r>
       <r>   55.9766    0.0000 </r>
       <r>   57.0320    0.0000 </r>
       <r>   58.8631    0.0000 </r>
       <r>   59.5843    0.0000 </r>
       <r>   60.2653    0.0000 </r>
       <r>   61.7032    0.0000 </r>
       <r>   62.0377    0.0000 </r>
       <r>   63.5083    0.0000 </r>
       <r>   64.9783    0.0000 </r>
       <r>   66.4106    0.0000 </r>
       <r>   67.2074    0.0000 </r>
      </set>
      <set comment="kpoint 28">
       <r>   -1.5328    1.0000 </r>
       <r>    2.5050    1.0000 </r>
       <r>    9.8751    0.0000 </r>
       <r>   12.0431    0.0000 </r>
       <r>   12.8763    0.0000 </r>
       <r>   14.6368    0.0000 </r>
       <r>   18.6899    0.0000 </r>
       <r>   19.4563    0.0000 </r>
       <r>   21.3086    0.0000 </r>
       <r>   22.2875    0.0000 </r>
       <r>   23.7907    0.0000 </r>
       <r>   25.1608    0.0000 </r>
       <r>   27.5028    0.0000 </r>
       <r>   30.0927    0.0000 </r>
       <r>   33.0342    0.0000 </r>
       <r>   35.7946    0.0000 </r>
       <r>   36.1342    0.0000 </r>
       <r>   38.8962    0.0000 </r>
       <r>   40.6048    0.0000 </r>
       <r>   42.4224    0.0000 </r>
       <r>   43.4742    0.0000 </r>
       <r>   44.0941    0.0000 </r>
       <r>   46.2468    0.0000 </r>
       <r>   49.0986    0.0000 </r>
       <r>   50.3737    0.0000 </r>
       <r>   51.5961    0.0000 </r>
       <r>   52.0270    0.0000 </r>
       <r>   53.0664    0.0000 </r>
       <r>   54.8206    0.0000 </r>
       <r>   57.4328    0.0000 </r>
       <r>   57.8351    0.0000 </r>
       <r>   58.4839    0.0000 </r>
       <r>   60.5462    0.0000 </r>
       <r>   61.5106    0.0000 </r>
       <r>   62.6230    0.0000 </r>
       <r>   62.7922    0.0000 </r>
       <r>   65.0444    0.0000 </r>
       <r>   65.5882    0.0000 </r>
       <r>   66.6757    0.0000 </r>
       <r>   67.5018    0.0000 </r>
      </set>
      <set comment="kpoint 29">
       <r>   -0.8727    1.0000 </r>
       <r>    1.7132    1.0000 </r>
       <r>    9.0619   -0.0000 </r>
       <r>   11.5305    0.0000 </r>
       <r>   13.6667    0.0000 </r>
       <r>   16.6711    0.0000 </r>
       <r>   17.6518    0.0000 </r>
       <r>   19.5641    0.0000 </r>
       <r>   20.7849    0.0000 </r>
       <r>   22.5843    0.0000 </r>
       <r>   24.4338    0.0000 </r>
       <r>   26.0923    0.0000 </r>
       <r>   26.3500    0.0000 </r>
       <r>   30.3912    0.0000 </r>
       <r>   32.1194    0.0000 </r>
       <r>   33.4911    0.0000 </r>
       <r>   34.6461    0.0000 </r>
       <r>   37.0493    0.0000 </r>
       <r>   41.0925    0.0000 </r>
       <r>   41.6569    0.0000 </r>
       <r>   45.1422    0.0000 </r>
       <r>   48.1166    0.0000 </r>
       <r>   49.0067    0.0000 </r>
       <r>   49.5994    0.0000 </r>
       <r>   53.5203    0.0000 </r>
       <r>   54.1360    0.0000 </r>
       <r>   54.5472    0.0000 </r>
       <r>   55.2858    0.0000 </r>
       <r>   55.9743    0.0000 </r>
       <r>   56.5759    0.0000 </r>
       <r>   58.9074    0.0000 </r>
       <r>   59.2472    0.0000 </r>
       <r>   59.5724    0.0000 </r>
       <r>   59.8444    0.0000 </r>
       <r>   60.4953    0.0000 </r>
       <r>   61.5521    0.0000 </r>
       <r>   61.8915    0.0000 </r>
       <r>   62.3091    0.0000 </r>
       <r>   64.2141    0.0000 </r>
       <r>   64.8697    0.0000 </r>
      </set>
      <set comment="kpoint 30">
       <r>    0.9705    1.0000 </r>
       <r>    2.9334    1.0000 </r>
       <r>    6.4775   -0.0000 </r>
       <r>    7.2198   -0.0000 </r>
       <r>   12.6460    0.0000 </r>
       <r>   15.1817    0.0000 </r>
       <r>   17.4371    0.0000 </r>
       <r>   19.5088    0.0000 </r>
       <r>   22.0909    0.0000 </r>
       <r>   23.0832    0.0000 </r>
       <r>   26.2671    0.0000 </r>
       <r>   30.9958    0.0000 </r>
       <r>   32.0049    0.0000 </r>
       <r>   32.8720    0.0000 </r>
       <r>   33.1672    0.0000 </r>
       <r>   33.8856    0.0000 </r>
       <r>   35.0740    0.0000 </r>
       <r>   36.7643    0.0000 </r>
       <r>   39.9555    0.0000 </r>
       <r>   43.0878    0.0000 </r>
       <r>   43.7854    0.0000 </r>
       <r>   46.3299    0.0000 </r>
       <r>   47.6540    0.0000 </r>
       <r>   48.9927    0.0000 </r>
       <r>   49.2864    0.0000 </r>
       <r>   50.1885    0.0000 </r>
       <r>   50.9555    0.0000 </r>
       <r>   53.0580    0.0000 </r>
       <r>   54.5110    0.0000 </r>
       <r>   55.0278    0.0000 </r>
       <r>   55.8196    0.0000 </r>
       <r>   56.1396    0.0000 </r>
       <r>   56.6578    0.0000 </r>
       <r>   57.7121    0.0000 </r>
       <r>   60.9369    0.0000 </r>
       <r>   61.5837    0.0000 </r>
       <r>   63.6017    0.0000 </r>
       <r>   64.0354    0.0000 </r>
       <r>   65.4983    0.0000 </r>
       <r>   67.4436    0.0000 </r>
      </set>
      <set comment="kpoint 31">
       <r>    2.4860    1.0000 </r>
       <r>    4.1198   -0.0111 </r>
       <r>    5.4192   -0.0000 </r>
       <r>    6.4161   -0.0000 </r>
       <r>    8.3409   -0.0000 </r>
       <r>   13.4243    0.0000 </r>
       <r>   18.3252    0.0000 </r>
       <r>   22.5341    0.0000 </r>
       <r>   23.2408    0.0000 </r>
       <r>   24.6765    0.0000 </r>
       <r>   28.2410    0.0000 </r>
       <r>   29.8395    0.0000 </r>
       <r>   31.5317    0.0000 </r>
       <r>   33.7492    0.0000 </r>
       <r>   34.5263    0.0000 </r>
       <r>   35.3476    0.0000 </r>
       <r>   38.6536    0.0000 </r>
       <r>   38.9585    0.0000 </r>
       <r>   39.8444    0.0000 </r>
       <r>   41.4607    0.0000 </r>
       <r>   42.3102    0.0000 </r>
       <r>   43.5285    0.0000 </r>
       <r>   45.1451    0.0000 </r>
       <r>   45.9211    0.0000 </r>
       <r>   47.8753    0.0000 </r>
       <r>   49.1132    0.0000 </r>
       <r>   49.6541    0.0000 </r>
       <r>   50.5492    0.0000 </r>
       <r>   50.8340    0.0000 </r>
       <r>   53.8801    0.0000 </r>
       <r>   54.7053    0.0000 </r>
       <r>   56.7422    0.0000 </r>
       <r>   56.9876    0.0000 </r>
       <r>   58.9668    0.0000 </r>
       <r>   61.4127    0.0000 </r>
       <r>   61.9640    0.0000 </r>
       <r>   63.4106    0.0000 </r>
       <r>   64.6571    0.0000 </r>
       <r>   65.6323    0.0000 </r>
       <r>   66.8943    0.0000 </r>
      </set>
      <set comment="kpoint 32">
       <r>   -0.1132    1.0000 </r>
       <r>    3.9107   -0.0011 </r>
       <r>    6.8691   -0.0000 </r>
       <r>    8.4819   -0.0000 </r>
       <r>   11.1075    0.0000 </r>
       <r>   13.4061    0.0000 </r>
       <r>   18.0167    0.0000 </r>
       <r>   19.5002    0.0000 </r>
       <r>   24.0491    0.0000 </r>
       <r>   25.0618    0.0000 </r>
       <r>   28.2194    0.0000 </r>
       <r>   29.5759    0.0000 </r>
       <r>   30.7326    0.0000 </r>
       <r>   32.2970    0.0000 </r>
       <r>   32.9471    0.0000 </r>
       <r>   34.2276    0.0000 </r>
       <r>   36.6939    0.0000 </r>
       <r>   37.8269    0.0000 </r>
       <r>   38.5232    0.0000 </r>
       <r>   40.0043    0.0000 </r>
       <r>   40.7988    0.0000 </r>
       <r>   43.0948    0.0000 </r>
       <r>   45.4092    0.0000 </r>
       <r>   47.1072    0.0000 </r>
       <r>   47.9553    0.0000 </r>
       <r>   50.9288    0.0000 </r>
       <r>   51.4220    0.0000 </r>
       <r>   52.7533    0.0000 </r>
       <r>   54.7072    0.0000 </r>
       <r>   56.3103    0.0000 </r>
       <r>   56.9638    0.0000 </r>
       <r>   58.6654    0.0000 </r>
       <r>   60.5257    0.0000 </r>
       <r>   61.7715    0.0000 </r>
       <r>   62.0656    0.0000 </r>
       <r>   62.7033    0.0000 </r>
       <r>   64.1241    0.0000 </r>
       <r>   64.6132    0.0000 </r>
       <r>   65.1357    0.0000 </r>
       <r>   65.5259    0.0000 </r>
      </set>
      <set comment="kpoint 33">
       <r>   -1.2541    1.0000 </r>
       <r>    2.0665    1.0000 </r>
       <r>    8.9773   -0.0000 </r>
       <r>   12.4038    0.0000 </r>
       <r>   14.1895    0.0000 </r>
       <r>   14.5184    0.0000 </r>
       <r>   17.8609    0.0000 </r>
       <r>   19.1676    0.0000 </r>
       <r>   21.8691    0.0000 </r>
       <r>   23.3206    0.0000 </r>
       <r>   24.6076    0.0000 </r>
       <r>   25.6448    0.0000 </r>
       <r>   28.4202    0.0000 </r>
       <r>   29.5868    0.0000 </r>
       <r>   30.3223    0.0000 </r>
       <r>   34.9229    0.0000 </r>
       <r>   35.2030    0.0000 </r>
       <r>   36.2447    0.0000 </r>
       <r>   40.7068    0.0000 </r>
       <r>   42.3519    0.0000 </r>
       <r>   44.7815    0.0000 </r>
       <r>   45.6645    0.0000 </r>
       <r>   46.8261    0.0000 </r>
       <r>   48.5810    0.0000 </r>
       <r>   50.5240    0.0000 </r>
       <r>   51.4463    0.0000 </r>
       <r>   53.3520    0.0000 </r>
       <r>   55.5334    0.0000 </r>
       <r>   56.8296    0.0000 </r>
       <r>   57.2147    0.0000 </r>
       <r>   57.8615    0.0000 </r>
       <r>   58.3521    0.0000 </r>
       <r>   60.7263    0.0000 </r>
       <r>   61.8511    0.0000 </r>
       <r>   62.1390    0.0000 </r>
       <r>   63.5303    0.0000 </r>
       <r>   64.5255    0.0000 </r>
       <r>   65.6860    0.0000 </r>
       <r>   66.4056    0.0000 </r>
       <r>   68.6457    0.0000 </r>
      </set>
      <set comment="kpoint 34">
       <r>   -2.7087    1.0000 </r>
       <r>    5.3034   -0.0000 </r>
       <r>    8.4306   -0.0000 </r>
       <r>   10.4533    0.0000 </r>
       <r>   12.4236    0.0000 </r>
       <r>   18.8552    0.0000 </r>
       <r>   19.6587    0.0000 </r>
       <r>   20.3058    0.0000 </r>
       <r>   21.4185    0.0000 </r>
       <r>   22.4576    0.0000 </r>
       <r>   25.2961    0.0000 </r>
       <r>   26.1430    0.0000 </r>
       <r>   26.6438    0.0000 </r>
       <r>   27.8793    0.0000 </r>
       <r>   28.8365    0.0000 </r>
       <r>   30.7864    0.0000 </r>
       <r>   31.9510    0.0000 </r>
       <r>   34.5923    0.0000 </r>
       <r>   41.1719    0.0000 </r>
       <r>   42.1284    0.0000 </r>
       <r>   45.2285    0.0000 </r>
       <r>   46.3591    0.0000 </r>
       <r>   49.6529    0.0000 </r>
       <r>   51.4890    0.0000 </r>
       <r>   53.1514    0.0000 </r>
       <r>   55.4095    0.0000 </r>
       <r>   55.7988    0.0000 </r>
       <r>   57.8768    0.0000 </r>
       <r>   58.3891    0.0000 </r>
       <r>   59.5060    0.0000 </r>
       <r>   60.2711    0.0000 </r>
       <r>   60.4117    0.0000 </r>
       <r>   61.1796    0.0000 </r>
       <r>   61.6670    0.0000 </r>
       <r>   63.0302    0.0000 </r>
       <r>   63.8755    0.0000 </r>
       <r>   64.0132    0.0000 </r>
       <r>   64.6059    0.0000 </r>
       <r>   65.5996    0.0000 </r>
       <r>   65.8542    0.0000 </r>
      </set>
      <set comment="kpoint 35">
       <r>   -0.8281    1.0000 </r>
       <r>    4.9915   -0.0000 </r>
       <r>    6.2746   -0.0000 </r>
       <r>    6.5743   -0.0000 </r>
       <r>   16.0497    0.0000 </r>
       <r>   16.8301    0.0000 </r>
       <r>   18.2959    0.0000 </r>
       <r>   19.5989    0.0000 </r>
       <r>   22.3936    0.0000 </r>
       <r>   23.6641    0.0000 </r>
       <r>   24.4706    0.0000 </r>
       <r>   25.4788    0.0000 </r>
       <r>   26.8127    0.0000 </r>
       <r>   32.3095    0.0000 </r>
       <r>   32.9373    0.0000 </r>
       <r>   34.4842    0.0000 </r>
       <r>   34.6554    0.0000 </r>
       <r>   38.0203    0.0000 </r>
       <r>   39.7272    0.0000 </r>
       <r>   40.6010    0.0000 </r>
       <r>   42.6462    0.0000 </r>
       <r>   45.0054    0.0000 </r>
       <r>   46.2615    0.0000 </r>
       <r>   48.1678    0.0000 </r>
       <r>   50.9583    0.0000 </r>
       <r>   52.4053    0.0000 </r>
       <r>   54.2844    0.0000 </r>
       <r>   55.1756    0.0000 </r>
       <r>   56.7286    0.0000 </r>
       <r>   58.4045    0.0000 </r>
       <r>   59.1207    0.0000 </r>
       <r>   60.1839    0.0000 </r>
       <r>   61.0954    0.0000 </r>
       <r>   61.6051    0.0000 </r>
       <r>   62.0926    0.0000 </r>
       <r>   63.8534    0.0000 </r>
       <r>   64.8962    0.0000 </r>
       <r>   65.7762    0.0000 </r>
       <r>   66.0888    0.0000 </r>
       <r>   67.0711    0.0000 </r>
      </set>
      <set comment="kpoint 36">
       <r>    1.0079    1.0000 </r>
       <r>    2.7043    1.0000 </r>
       <r>    5.0466   -0.0000 </r>
       <r>    8.6213   -0.0000 </r>
       <r>   12.3043    0.0000 </r>
       <r>   17.7995    0.0000 </r>
       <r>   17.9410    0.0000 </r>
       <r>   20.2263    0.0000 </r>
       <r>   22.5410    0.0000 </r>
       <r>   22.8653    0.0000 </r>
       <r>   24.2633    0.0000 </r>
       <r>   26.9668    0.0000 </r>
       <r>   28.2950    0.0000 </r>
       <r>   32.5382    0.0000 </r>
       <r>   33.6452    0.0000 </r>
       <r>   37.8793    0.0000 </r>
       <r>   38.4983    0.0000 </r>
       <r>   39.5776    0.0000 </r>
       <r>   41.9634    0.0000 </r>
       <r>   42.4365    0.0000 </r>
       <r>   43.0582    0.0000 </r>
       <r>   44.5922    0.0000 </r>
       <r>   44.9253    0.0000 </r>
       <r>   46.4013    0.0000 </r>
       <r>   47.9081    0.0000 </r>
       <r>   48.5347    0.0000 </r>
       <r>   50.1588    0.0000 </r>
       <r>   51.4879    0.0000 </r>
       <r>   53.2152    0.0000 </r>
       <r>   55.4193    0.0000 </r>
       <r>   56.4023    0.0000 </r>
       <r>   57.0364    0.0000 </r>
       <r>   58.6381    0.0000 </r>
       <r>   59.7432    0.0000 </r>
       <r>   60.1311    0.0000 </r>
       <r>   63.6617    0.0000 </r>
       <r>   64.3823    0.0000 </r>
       <r>   65.0243    0.0000 </r>
       <r>   65.6311    0.0000 </r>
       <r>   67.5440    0.0000 </r>
      </set>
      <set comment="kpoint 37">
       <r>   -1.7359    1.0000 </r>
       <r>    5.4845   -0.0000 </r>
       <r>    7.2223   -0.0000 </r>
       <r>    8.6325   -0.0000 </r>
       <r>   12.8383    0.0000 </r>
       <r>   17.3720    0.0000 </r>
       <r>   17.6482    0.0000 </r>
       <r>   18.5750    0.0000 </r>
       <r>   20.6652    0.0000 </r>
       <r>   23.4654    0.0000 </r>
       <r>   25.1084    0.0000 </r>
       <r>   28.2642    0.0000 </r>
       <r>   29.3039    0.0000 </r>
       <r>   31.0158    0.0000 </r>
       <r>   31.6593    0.0000 </r>
       <r>   35.5525    0.0000 </r>
       <r>   36.1186    0.0000 </r>
       <r>   37.0480    0.0000 </r>
       <r>   40.1370    0.0000 </r>
       <r>   42.7637    0.0000 </r>
       <r>   43.7449    0.0000 </r>
       <r>   44.9000    0.0000 </r>
       <r>   46.7509    0.0000 </r>
       <r>   48.3149    0.0000 </r>
       <r>   49.8484    0.0000 </r>
       <r>   50.8001    0.0000 </r>
       <r>   52.4318    0.0000 </r>
       <r>   53.2058    0.0000 </r>
       <r>   53.9993    0.0000 </r>
       <r>   55.3129    0.0000 </r>
       <r>   56.5724    0.0000 </r>
       <r>   57.0245    0.0000 </r>
       <r>   58.5387    0.0000 </r>
       <r>   59.6649    0.0000 </r>
       <r>   60.6624    0.0000 </r>
       <r>   63.2857    0.0000 </r>
       <r>   64.7045    0.0000 </r>
       <r>   65.1690    0.0000 </r>
       <r>   65.8173    0.0000 </r>
       <r>   67.7911    0.0000 </r>
      </set>
      <set comment="kpoint 38">
       <r>   -3.0149    1.0000 </r>
       <r>    5.8888   -0.0000 </r>
       <r>    7.7764   -0.0000 </r>
       <r>   12.0034    0.0000 </r>
       <r>   14.1319    0.0000 </r>
       <r>   17.4744    0.0000 </r>
       <r>   17.9102    0.0000 </r>
       <r>   19.1646    0.0000 </r>
       <r>   19.3909    0.0000 </r>
       <r>   23.0929    0.0000 </r>
       <r>   24.1162    0.0000 </r>
[...]
       <r>   30.5068    0.0000 </r>
       <r>   32.2057    0.0000 </r>
       <r>   33.3945    0.0000 </r>
       <r>   34.2254    0.0000 </r>
       <r>   35.1891    0.0000 </r>
       <r>   38.3998    0.0000 </r>
       <r>   39.4723    0.0000 </r>
       <r>   39.8019    0.0000 </r>
       <r>   44.3750    0.0000 </r>
       <r>   45.1467    0.0000 </r>
       <r>   47.9960    0.0000 </r>
       <r>   48.9924    0.0000 </r>
       <r>   50.0505    0.0000 </r>
       <r>   50.7724    0.0000 </r>
       <r>   52.0879    0.0000 </r>
       <r>   52.3415    0.0000 </r>
       <r>   53.7581    0.0000 </r>
       <r>   54.7158    0.0000 </r>
       <r>   55.0258    0.0000 </r>
       <r>   56.3072    0.0000 </r>
       <r>   57.2202    0.0000 </r>
       <r>   57.4144    0.0000 </r>
       <r>   58.3789    0.0000 </r>
       <r>   59.3662    0.0000 </r>
       <r>   62.5683    0.0000 </r>
       <r>   63.7043    0.0000 </r>
       <r>   65.0769    0.0000 </r>
       <r>   66.1833    0.0000 </r>
      </set>
      <set comment="kpoint 62">
       <r>   -0.7361    1.0000 </r>
       <r>    2.6935    1.0000 </r>
       <r>    7.7931   -0.0000 </r>
       <r>   10.5936    0.0000 </r>
       <r>   12.7452    0.0000 </r>
       <r>   13.8642    0.0000 </r>
       <r>   17.0251    0.0000 </r>
       <r>   20.7470    0.0000 </r>
       <r>   23.5610    0.0000 </r>
       <r>   23.8058    0.0000 </r>
       <r>   25.5310    0.0000 </r>
       <r>   27.2959    0.0000 </r>
       <r>   29.5808    0.0000 </r>
       <r>   32.5040    0.0000 </r>
       <r>   33.0831    0.0000 </r>
       <r>   33.7448    0.0000 </r>
       <r>   35.7510    0.0000 </r>
       <r>   37.3615    0.0000 </r>
       <r>   39.8072    0.0000 </r>
       <r>   41.4240    0.0000 </r>
       <r>   41.9312    0.0000 </r>
       <r>   43.3253    0.0000 </r>
       <r>   44.1162    0.0000 </r>
       <r>   46.8537    0.0000 </r>
       <r>   48.0521    0.0000 </r>
       <r>   51.1320    0.0000 </r>
       <r>   51.9414    0.0000 </r>
       <r>   55.3401    0.0000 </r>
       <r>   56.5861    0.0000 </r>
       <r>   57.0984    0.0000 </r>
       <r>   57.8305    0.0000 </r>
       <r>   58.2291    0.0000 </r>
       <r>   59.6480    0.0000 </r>
       <r>   61.7529    0.0000 </r>
       <r>   62.0799    0.0000 </r>
       <r>   63.6768    0.0000 </r>
       <r>   64.8158    0.0000 </r>
       <r>   65.1594    0.0000 </r>
       <r>   65.6626    0.0000 </r>
       <r>   66.9770    0.0000 </r>
      </set>
      <set comment="kpoint 63">
       <r>   -1.0816    1.0000 </r>
       <r>    5.2226   -0.0000 </r>
       <r>    6.3067   -0.0000 </r>
       <r>    6.8987   -0.0000 </r>
       <r>   15.0874    0.0000 </r>
       <r>   16.2866    0.0000 </r>
       <r>   19.1322    0.0000 </r>
       <r>   19.9073    0.0000 </r>
       <r>   22.1643    0.0000 </r>
       <r>   23.4367    0.0000 </r>
       <r>   24.5489    0.0000 </r>
       <r>   26.6543    0.0000 </r>
       <r>   29.3947    0.0000 </r>
       <r>   30.7503    0.0000 </r>
       <r>   32.1651    0.0000 </r>
       <r>   33.3212    0.0000 </r>
       <r>   34.6842    0.0000 </r>
       <r>   37.0971    0.0000 </r>
       <r>   38.3240    0.0000 </r>
       <r>   41.4959    0.0000 </r>
       <r>   44.2581    0.0000 </r>
       <r>   46.2791    0.0000 </r>
       <r>   46.7031    0.0000 </r>
       <r>   48.6674    0.0000 </r>
       <r>   49.8630    0.0000 </r>
       <r>   50.9353    0.0000 </r>
       <r>   53.0401    0.0000 </r>
       <r>   54.6856    0.0000 </r>
       <r>   55.2926    0.0000 </r>
       <r>   56.0621    0.0000 </r>
       <r>   57.9582    0.0000 </r>
       <r>   58.3523    0.0000 </r>
       <r>   60.5445    0.0000 </r>
       <r>   61.3635    0.0000 </r>
       <r>   62.9766    0.0000 </r>
       <r>   63.9562    0.0000 </r>
       <r>   64.9348    0.0000 </r>
       <r>   65.5039    0.0000 </r>
       <r>   66.7034    0.0000 </r>
       <r>   66.9121    0.0000 </r>
      </set>
     </set>
    </set>
   </array>
  </eigenvalues>
  <separator name="orbital magnetization" >
   <v name="MAGDIPOLOUT">      0.00000000      0.00000000      0.00000000</v>
  </separator>
  <dos>
   <i name="efermi">      3.74133018 </i>
   <total>
    <array>
     <dimension dim="1">gridpoints</dimension>
     <dimension dim="2">spin</dimension>
     <field>energy</field>
     <field>total</field>
     <field>integrated</field>
     <set>
      <set comment="spin 1">
       <r>    -8.1586     0.0000     0.0000 </r>
       <r>    -7.8875     0.0000     0.0000 </r>
       <r>    -7.6164     0.0000     0.0000 </r>
       <r>    -7.3453     0.0000     0.0000 </r>
       <r>    -7.0743     0.0000     0.0000 </r>
       <r>    -6.8032     0.0000     0.0000 </r>
       <r>    -6.5321     0.0000     0.0000 </r>
       <r>    -6.2611    -0.0000    -0.0000 </r>
       <r>    -5.9900    -0.0000    -0.0000 </r>
       <r>    -5.7189    -0.0000    -0.0000 </r>
       <r>    -5.4478    -0.0000    -0.0000 </r>
       <r>    -5.1768    -0.0000    -0.0000 </r>
       <r>    -4.9057    -0.0002    -0.0001 </r>
       <r>    -4.6346    -0.0000    -0.0001 </r>
       <r>    -4.3636     0.0513     0.0138 </r>
       <r>    -4.0925     0.0027     0.0146 </r>
       <r>    -3.8214     0.0871     0.0382 </r>
       <r>    -3.5503     0.3347     0.1289 </r>
       <r>    -3.2793     0.1700     0.1750 </r>
       <r>    -3.0082     0.3100     0.2590 </r>
       <r>    -2.7371     0.2048     0.3145 </r>
       <r>    -2.4661     0.0772     0.3354 </r>
       <r>    -2.1950     0.1079     0.3647 </r>
       <r>    -1.9239     0.2989     0.4457 </r>
       <r>    -1.6528     0.5927     0.6064 </r>
       <r>    -1.3818     0.4200     0.7202 </r>
       <r>    -1.1107     0.4036     0.8296 </r>
       <r>    -0.8396     0.6970     1.0185 </r>
       <r>    -0.5686     0.2135     1.0764 </r>
       <r>    -0.2975     0.2661     1.1485 </r>
       <r>    -0.0264     0.1698     1.1946 </r>
       <r>     0.2447     0.3019     1.2764 </r>
       <r>     0.5157     0.3916     1.3825 </r>
       <r>     0.7868     0.3094     1.4664 </r>
       <r>     1.0579     0.4821     1.5971 </r>
       <r>     1.3289     0.4966     1.7317 </r>
       <r>     1.6000     0.3755     1.8335 </r>
       <r>     1.8711     0.6399     2.0070 </r>
       <r>     2.1421     0.3184     2.0933 </r>
       <r>     2.4132     0.6196     2.2612 </r>
       <r>     2.6843     0.6402     2.4348 </r>
       <r>     2.9554     0.7581     2.6403 </r>
       <r>     3.2264     0.6346     2.8123 </r>
       <r>     3.4975     0.4731     2.9406 </r>
       <r>     3.7686     0.2459     3.0072 </r>
       <r>     4.0396     0.3359     3.0983 </r>
       <r>     4.3107     0.4277     3.2142 </r>
       <r>     4.5818     0.4782     3.3438 </r>
       <r>     4.8529     0.2669     3.4162 </r>
       <r>     5.1239     0.6442     3.5908 </r>
       <r>     5.3950     1.0318     3.8705 </r>
       <r>     5.6661     1.0087     4.1439 </r>
       <r>     5.9371     0.6022     4.3072 </r>
       <r>     6.2082     0.3379     4.3987 </r>
       <r>     6.4793     0.8967     4.6418 </r>
       <r>     6.7504     0.7255     4.8385 </r>
       <r>     7.0214     0.7128     5.0317 </r>
       <r>     7.2925     0.6075     5.1964 </r>
       <r>     7.5636     0.3868     5.3012 </r>
       <r>     7.8346     0.7182     5.4959 </r>
       <r>     8.1057     0.6802     5.6803 </r>
       <r>     8.3768     0.3858     5.7849 </r>
       <r>     8.6479     0.9896     6.0531 </r>
       <r>     8.9189     0.8016     6.2704 </r>
       <r>     9.1900     0.5942     6.4315 </r>
       <r>     9.4611     0.5830     6.5895 </r>
       <r>     9.7321     0.4511     6.7118 </r>
       <r>    10.0032     0.3854     6.8163 </r>
       <r>    10.2743     0.7628     7.0230 </r>
       <r>    10.5454     0.9487     7.2802 </r>
       <r>    10.8164     0.9221     7.5301 </r>
       <r>    11.0875     1.0906     7.8258 </r>
       <r>    11.3586     1.0624     8.1138 </r>
       <r>    11.6296     0.7073     8.3055 </r>
       <r>    11.9007     0.4711     8.4332 </r>
       <r>    12.1718     0.9348     8.6866 </r>
       <r>    12.4429     0.9547     8.9454 </r>
       <r>    12.7139     0.9612     9.2060 </r>
       <r>    12.9850     0.6348     9.3780 </r>
       <r>    13.2561     0.8504     9.6085 </r>
       <r>    13.5271     0.9909     9.8771 </r>
       <r>    13.7982     0.6676    10.0581 </r>
       <r>    14.0693     0.3037    10.1404 </r>
       <r>    14.3404     0.7887    10.3542 </r>
       <r>    14.6114     1.1730    10.6722 </r>
       <r>    14.8825     1.0260    10.9503 </r>
       <r>    15.1536     0.6033    11.1139 </r>
       <r>    15.4246     0.5598    11.2656 </r>
       <r>    15.6957     0.5490    11.4144 </r>
       <r>    15.9668     0.7843    11.6270 </r>
       <r>    16.2379     0.6360    11.7994 </r>
       <r>    16.5089     0.8647    12.0338 </r>
       <r>    16.7800     0.5613    12.1860 </r>
       <r>    17.0511     1.3869    12.5619 </r>
       <r>    17.3221     1.0287    12.8408 </r>
       <r>    17.5932     1.0882    13.1357 </r>
       <r>    17.8643     1.2208    13.4667 </r>
       <r>    18.1353     1.1050    13.7662 </r>
       <r>    18.4064     0.8513    13.9970 </r>
       <r>    18.6775     1.5761    14.4242 </r>
       <r>    18.9486     1.0906    14.7199 </r>
       <r>    19.2196     1.0048    14.9922 </r>
       <r>    19.4907     1.1324    15.2992 </r>
       <r>    19.7618     1.5654    15.7235 </r>
       <r>    20.0328     0.6626    15.9031 </r>
       <r>    20.3039     0.6441    16.0777 </r>
       <r>    20.5750     0.4160    16.1905 </r>
       <r>    20.8461     1.1543    16.5034 </r>
       <r>    21.1171     0.3599    16.6010 </r>
       <r>    21.3882     0.6265    16.7708 </r>
       <r>    21.6593     0.5110    16.9093 </r>
       <r>    21.9303     0.3060    16.9922 </r>
       <r>    22.2014     0.8972    17.2355 </r>
       <r>    22.4725     1.3776    17.6089 </r>
       <r>    22.7436     1.1426    17.9186 </r>
       <r>    23.0146     0.5407    18.0652 </r>
       <r>    23.2857     1.1534    18.3778 </r>
       <r>    23.5568     1.5015    18.7849 </r>
       <r>    23.8278     1.3516    19.1512 </r>
       <r>    24.0989     1.2329    19.4854 </r>
       <r>    24.3700     1.1984    19.8103 </r>
       <r>    24.6411     1.4545    20.2046 </r>
       <r>    24.9121     1.5291    20.6191 </r>
       <r>    25.1832     1.0105    20.8930 </r>
       <r>    25.4543     0.9067    21.1387 </r>
       <r>    25.7253     1.2187    21.4691 </r>
       <r>    25.9964     1.0028    21.7409 </r>
       <r>    26.2675     0.9494    21.9983 </r>
       <r>    26.5386     0.7067    22.1899 </r>
       <r>    26.8096     0.6180    22.3574 </r>
       <r>    27.0807     0.2939    22.4371 </r>
       <r>    27.3518     0.5669    22.5907 </r>
       <r>    27.6228     1.1486    22.9021 </r>
       <r>    27.8939     0.9681    23.1645 </r>
       <r>    28.1650     1.3037    23.5179 </r>
       <r>    28.4361     1.0427    23.8006 </r>
       <r>    28.7071     0.4268    23.9162 </r>
       <r>    28.9782     0.7621    24.1228 </r>
       <r>    29.2493     0.9030    24.3676 </r>
       <r>    29.5203     1.2711    24.7122 </r>
       <r>    29.7914     1.0557    24.9983 </r>
       <r>    30.0625     0.9387    25.2528 </r>
       <r>    30.3336     0.9761    25.5174 </r>
       <r>    30.6046     1.1666    25.8336 </r>
       <r>    30.8757     0.8446    26.0626 </r>
       <r>    31.1468     1.0057    26.3352 </r>
       <r>    31.4178     1.2137    26.6642 </r>
       <r>    31.6889     0.9221    26.9142 </r>
       <r>    31.9600     1.0372    27.1953 </r>
       <r>    32.2310     1.2462    27.5331 </r>
       <r>    32.5021     1.5249    27.9465 </r>
       <r>    32.7732     1.3882    28.3228 </r>
       <r>    33.0443     1.7001    28.7836 </r>
       <r>    33.3153     1.2453    29.1212 </r>
       <r>    33.5864     1.2428    29.4581 </r>
       <r>    33.8575     1.5425    29.8762 </r>
       <r>    34.1285     1.0935    30.1726 </r>
       <r>    34.3996     1.1696    30.4897 </r>
       <r>    34.6707     1.7750    30.9708 </r>
       <r>    34.9418     1.3468    31.3359 </r>
       <r>    35.2128     1.0786    31.6283 </r>
       <r>    35.4839     1.3775    32.0017 </r>
       <r>    35.7550     1.2846    32.3499 </r>
       <r>    36.0260     0.8226    32.5729 </r>
       <r>    36.2971     1.2664    32.9162 </r>
       <r>    36.5682     0.8745    33.1532 </r>
       <r>    36.8393     0.7942    33.3685 </r>
       <r>    37.1103     1.3842    33.7437 </r>
       <r>    37.3814     1.4270    34.1306 </r>
       <r>    37.6525     1.1945    34.4543 </r>
       <r>    37.9235     0.8163    34.6756 </r>
       <r>    38.1946     0.6676    34.8566 </r>
       <r>    38.4657     1.1392    35.1654 </r>
       <r>    38.7368     1.1269    35.4708 </r>
       <r>    39.0078     1.4999    35.8774 </r>
       <r>    39.2789     0.9837    36.1441 </r>
       <r>    39.5500     1.1198    36.4476 </r>
       <r>    39.8210     0.7628    36.6544 </r>
       <r>    40.0921     1.1748    36.9728 </r>
       <r>    40.3632     1.0478    37.2569 </r>
       <r>    40.6343     1.2712    37.6014 </r>
       <r>    40.9053     1.4200    37.9864 </r>
       <r>    41.1764     1.1294    38.2925 </r>
       <r>    41.4475     1.0084    38.5659 </r>
       <r>    41.7185     1.6534    39.0140 </r>
       <r>    41.9896     1.8233    39.5083 </r>
       <r>    42.2607     1.2912    39.8583 </r>
       <r>    42.5318     1.6568    40.3074 </r>
       <r>    42.8028     1.4739    40.7069 </r>
       <r>    43.0739     1.0723    40.9976 </r>
       <r>    43.3450     1.4579    41.3928 </r>
       <r>    43.6160     1.4623    41.7892 </r>
       <r>    43.8871     1.7812    42.2721 </r>
       <r>    44.1582     1.2612    42.6139 </r>
       <r>    44.4293     1.2742    42.9593 </r>
       <r>    44.7003     1.4274    43.3463 </r>
       <r>    44.9714     1.7585    43.8229 </r>
       <r>    45.2425     1.2736    44.1682 </r>
       <r>    45.5135     1.5571    44.5903 </r>
       <r>    45.7846     1.2414    44.9268 </r>
       <r>    46.0557     1.0391    45.2084 </r>
       <r>    46.3268     1.2175    45.5385 </r>
       <r>    46.5978     1.3829    45.9133 </r>
       <r>    46.8689     1.4254    46.2997 </r>
       <r>    47.1400     0.7519    46.5036 </r>
       <r>    47.4110     1.5312    46.9186 </r>
       <r>    47.6821     1.3903    47.2955 </r>
       <r>    47.9532     1.3821    47.6702 </r>
       <r>    48.2242     1.4432    48.0614 </r>
       <r>    48.4953     0.9862    48.3287 </r>
       <r>    48.7664     0.8030    48.5464 </r>
       <r>    49.0375     0.7926    48.7612 </r>
       <r>    49.3085     1.4650    49.1583 </r>
       <r>    49.5796     1.3925    49.5358 </r>
       <r>    49.8507     1.3662    49.9061 </r>
       <r>    50.1217     1.7506    50.3807 </r>
       <r>    50.3928     1.2521    50.7201 </r>
       <r>    50.6639     0.8062    50.9386 </r>
       <r>    50.9350     1.4969    51.3444 </r>
       <r>    51.2060     1.8153    51.8365 </r>
       <r>    51.4771     1.4128    52.2194 </r>
       <r>    51.7482     1.5253    52.6329 </r>
       <r>    52.0192     1.5991    53.0664 </r>
       <r>    52.2903     1.5288    53.4808 </r>
       <r>    52.5614     1.1183    53.7839 </r>
       <r>    52.8325     1.7314    54.2533 </r>
       <r>    53.1035     1.8226    54.7473 </r>
       <r>    53.3746     1.6261    55.1881 </r>
       <r>    53.6457     0.9844    55.4550 </r>
       <r>    53.9167     1.3932    55.8326 </r>
       <r>    54.1878     1.0254    56.1106 </r>
       <r>    54.4589     1.0595    56.3978 </r>
       <r>    54.7300     1.7231    56.8649 </r>
       <r>    55.0010     1.2956    57.2161 </r>
       <r>    55.2721     1.5850    57.6457 </r>
       <r>    55.5432     1.6000    58.0794 </r>
       <r>    55.8142     1.5711    58.5053 </r>
       <r>    56.0853     1.8371    59.0033 </r>
       <r>    56.3564     2.1810    59.5945 </r>
       <r>    56.6275     2.2061    60.1925 </r>
       <r>    56.8985     1.9841    60.7303 </r>
       <r>    57.1696     1.6043    61.1652 </r>
       <r>    57.4407     1.1894    61.4876 </r>
       <r>    57.7117     1.2705    61.8320 </r>
       <r>    57.9828     2.0885    62.3981 </r>
       <r>    58.2539     1.8014    62.8864 </r>
       <r>    58.5250     1.7294    63.3552 </r>
       <r>    58.7960     1.9690    63.8889 </r>
       <r>    59.0671     1.8378    64.3871 </r>
       <r>    59.3382     1.2379    64.7226 </r>
       <r>    59.6092     1.5109    65.1322 </r>
       <r>    59.8803     1.5666    65.5568 </r>
       <r>    60.1514     1.3521    65.9234 </r>
       <r>    60.4225     1.4068    66.3047 </r>
       <r>    60.6935     1.3442    66.6691 </r>
       <r>    60.9646     1.2343    67.0037 </r>
       <r>    61.2357     1.8108    67.4945 </r>
       <r>    61.5067     1.8495    67.9958 </r>
       <r>    61.7778     2.2664    68.6102 </r>
       <r>    62.0489     1.8161    69.1025 </r>
       <r>    62.3200     1.7774    69.5843 </r>
       <r>    62.5910     1.2583    69.9254 </r>
       <r>    62.8621     1.7143    70.3901 </r>
       <r>    63.1332     1.6807    70.8457 </r>
       <r>    63.4042     1.6227    71.2855 </r>
       <r>    63.6753     1.9030    71.8014 </r>
       <r>    63.9464     2.6531    72.5206 </r>
       <r>    64.2174     1.8092    73.0110 </r>
       <r>    64.4885     1.9124    73.5294 </r>
       <r>    64.7596     2.4368    74.1899 </r>
       <r>    65.0307     2.2365    74.7962 </r>
       <r>    65.3017     1.7255    75.2639 </r>
       <r>    65.5728     1.8846    75.7748 </r>
       <r>    65.8439     2.2632    76.3883 </r>
       <r>    66.1149     1.3714    76.7600 </r>
       <r>    66.3860     1.8364    77.2578 </r>
       <r>    66.6571     1.7914    77.7434 </r>
       <r>    66.9282     1.5903    78.1745 </r>
       <r>    67.1992     1.2199    78.5052 </r>
       <r>    67.4703     1.1548    78.8182 </r>
       <r>    67.7414     0.8231    79.0413 </r>
       <r>    68.0124     0.9465    79.2979 </r>
       <r>    68.2835     0.9720    79.5614 </r>
       <r>    68.5546     0.2608    79.6321 </r>
       <r>    68.8257     0.5026    79.7683 </r>
       <r>    69.0967     0.5201    79.9093 </r>
       <r>    69.3678     0.1763    79.9571 </r>
       <r>    69.6389     0.1631    80.0013 </r>
       <r>    69.9099    -0.0042    80.0001 </r>
       <r>    70.1810    -0.0005    80.0000 </r>
       <r>    70.4521    -0.0000    80.0000 </r>
       <r>    70.7232    -0.0000    80.0000 </r>
       <r>    70.9942     0.0000    80.0000 </r>
       <r>    71.2653     0.0000    80.0000 </r>
       <r>    71.5364     0.0000    80.0000 </r>
       <r>    71.8074     0.0000    80.0000 </r>
       <r>    72.0785     0.0000    80.0000 </r>
       <r>    72.3496     0.0000    80.0000 </r>
       <r>    72.6207     0.0000    80.0000 </r>
       <r>    72.8917     0.0000    80.0000 </r>
       <r>    73.1628     0.0000    80.0000 </r>
      </set>
     </set>
    </array>
   </total>
  </dos>
 </calculation>
 <structure name="finalpos" >
  <crystal>
   <varray name="basis" >
    <v>       3.05309016       0.26992264      -1.01201698 </v>
    <v>       0.02353372       3.07416826       0.45112076 </v>
    <v>      -0.76514699       0.02330515       3.04689700 </v>
   </varray>
   <i name="volume">     26.07166505 </i>
   <varray name="rec_basis" >
    <v>       0.35886318      -0.01598972       0.09024123 </v>
    <v>      -0.03244947       0.32710260      -0.01065077 </v>
    <v>       0.12399968      -0.05374144       0.35975303 </v>
   </varray>
  </crystal>
  <varray name="positions" >
   <v>       0.92371990       0.41872333       0.93385728 </v>
  </varray>
 </structure>
</modeling>
