<?xml version="1.0" encoding="ISO-8859-1"?>
<modeling>
 <generator>
  <i name="program" type="string">vasp </i>
  <i name="version" type="string">5.4.4.18Apr17-6-g9f103f2a35  </i>
  <i name="subversion" type="string">(build Feb 19 2020 16:12:31) complex            parallel </i>
  <i name="platform" type="string">LinuxIFC </i>
  <i name="date" type="string">2024 06 07 </i>
  <i name="time" type="string">02:12:26 </i>
 </generator>
 <incar>
  <i type="string" name="SYSTEM"> Isif_5_isif_7_pyxtal_struct_0</i>
  <i type="int" name="ISTART">     0</i>
  <i type="string" name="PREC">accurate</i>
  <i type="string" name="ALGO"> Veryfast</i>
  <i type="int" name="NSIM">     1</i>
  <i type="int" name="NELM">   240</i>
  <i type="int" name="IBRION">     2</i>
  <i name="EDIFF">      0.00001000</i>
  <i name="EDIFFG">      0.00010000</i>
  <i type="int" name="NSW">   200</i>
  <i type="int" name="ISIF">     5</i>
  <i name="ENCUT">    400.00000000</i>
  <v name="MAGMOM">     -3.00000000</v>
  <i type="logical" name="LREAL"> F  </i>
  <i type="logical" name="LPLANE"> F  </i>
  <i type="int" name="ISMEAR">     1</i>
  <i name="SIGMA">      0.20000000</i>
  <i name="KSPACING">      0.50000000</i>
  <i type="int" name="LORBIT">    10</i>
  <v type="int" name="KPOINT_BSE">    -1     0     0     0</v>
  <i type="int" name="NELM">   240</i>
  <i type="string" name="GGA"> Pe</i>
 </incar>
 <structure name="primitive_cell" >
  <crystal>
   <varray name="basis" >
    <v>       2.95270701       0.25982161      -1.14889801 </v>
    <v>       0.02105904       3.05066754       0.53921677 </v>
    <v>      -0.82281353       0.08251783       3.24409826 </v>
   </varray>
   <i name="volume">     26.07166505 </i>
   <varray name="rec_basis" >
    <v>       0.37788803      -0.01963789       0.09634476 </v>
    <v>      -0.03596592       0.33114659      -0.01754532 </v>
    <v>       0.13980718      -0.06199619       0.34528887 </v>
   </varray>
  </crystal>
  <varray name="positions" >
   <v>      -0.07628010       0.41872333      -0.06614272 </v>
  </varray>
 </structure>
 <varray name="primitive_index" >
  <v type="int" >        1 </v>
 </varray>
 <kpoints>
  <generation param="Gamma">
   <v type="int" name="divisions">       5        5        5 </v>
   <v name="usershift">      0.00000000       0.00000000       0.00000000 </v>
   <v name="genvec1">      0.20000000       0.00000000       0.00000000 </v>
   <v name="genvec2">     -0.00000000       0.20000000      -0.00000000 </v>
   <v name="genvec3">      0.00000000       0.00000000       0.20000000 </v>
   <v name="shift">      0.00000000       0.00000000       0.00000000 </v>
  </generation>
  <varray name="kpointlist" >
   <v>       0.00000000       0.00000000       0.00000000 </v>
   <v>       0.20000000       0.00000000      -0.00000000 </v>
   <v>       0.40000000       0.00000000      -0.00000000 </v>
   <v>      -0.00000000       0.20000000      -0.00000000 </v>
   <v>       0.20000000       0.20000000       0.00000000 </v>
   <v>       0.40000000       0.20000000       0.00000000 </v>
   <v>      -0.40000000       0.20000000       0.00000000 </v>
   <v>      -0.20000000       0.20000000       0.00000000 </v>
   <v>      -0.00000000       0.40000000      -0.00000000 </v>
   <v>       0.20000000       0.40000000      -0.00000000 </v>
   <v>       0.40000000       0.40000000       0.00000000 </v>
   <v>      -0.40000000       0.40000000       0.00000000 </v>
   <v>      -0.20000000       0.40000000      -0.00000000 </v>
   <v>      -0.00000000       0.00000000       0.20000000 </v>
   <v>       0.20000000      -0.00000000       0.20000000 </v>
   <v>       0.40000000       0.00000000       0.20000000 </v>
   <v>      -0.40000000       0.00000000       0.20000000 </v>
   <v>      -0.20000000       0.00000000       0.20000000 </v>
   <v>       0.00000000       0.20000000       0.20000000 </v>
   <v>       0.20000000       0.20000000       0.20000000 </v>
   <v>       0.40000000       0.20000000       0.20000000 </v>
   <v>      -0.40000000       0.20000000       0.20000000 </v>
   <v>      -0.20000000       0.20000000       0.20000000 </v>
   <v>       0.00000000       0.40000000       0.20000000 </v>
   <v>       0.20000000       0.40000000       0.20000000 </v>
   <v>       0.40000000       0.40000000       0.20000000 </v>
   <v>      -0.40000000       0.40000000       0.20000000 </v>
   <v>      -0.20000000       0.40000000       0.20000000 </v>
   <v>       0.00000000      -0.40000000       0.20000000 </v>
   <v>       0.20000000      -0.40000000       0.20000000 </v>
   <v>       0.40000000      -0.40000000       0.20000000 </v>
   <v>      -0.40000000      -0.40000000       0.20000000 </v>
   <v>      -0.20000000      -0.40000000       0.20000000 </v>
   <v>       0.00000000      -0.20000000       0.20000000 </v>
   <v>       0.20000000      -0.20000000       0.20000000 </v>
   <v>       0.40000000      -0.20000000       0.20000000 </v>
   <v>      -0.40000000      -0.20000000       0.20000000 </v>
   <v>      -0.20000000      -0.20000000       0.20000000 </v>
   <v>      -0.00000000       0.00000000       0.40000000 </v>
   <v>       0.20000000       0.00000000       0.40000000 </v>
   <v>       0.40000000      -0.00000000       0.40000000 </v>
   <v>      -0.40000000       0.00000000       0.40000000 </v>
   <v>      -0.20000000       0.00000000       0.40000000 </v>
   <v>       0.00000000       0.20000000       0.40000000 </v>
   <v>       0.20000000       0.20000000       0.40000000 </v>
   <v>       0.40000000       0.20000000       0.40000000 </v>
   <v>      -0.40000000       0.20000000       0.40000000 </v>
   <v>      -0.20000000       0.20000000       0.40000000 </v>
   <v>       0.00000000       0.40000000       0.40000000 </v>
   <v>       0.20000000       0.40000000       0.40000000 </v>
   <v>       0.40000000       0.40000000       0.40000000 </v>
   <v>      -0.40000000       0.40000000       0.40000000 </v>
   <v>      -0.20000000       0.40000000       0.40000000 </v>
   <v>       0.00000000      -0.40000000       0.40000000 </v>
   <v>       0.20000000      -0.40000000       0.40000000 </v>
   <v>       0.40000000      -0.40000000       0.40000000 </v>
   <v>      -0.40000000      -0.40000000       0.40000000 </v>
   <v>      -0.20000000      -0.40000000       0.40000000 </v>
   <v>       0.00000000      -0.20000000       0.40000000 </v>
   <v>       0.20000000      -0.20000000       0.40000000 </v>
   <v>       0.40000000      -0.20000000       0.40000000 </v>
   <v>      -0.40000000      -0.20000000       0.40000000 </v>
   <v>      -0.20000000      -0.20000000       0.40000000 </v>
  </varray>
  <varray name="weights" >
   <v>       0.00800000 </v>
   <v>       0.01600000 </v>
   <v>       0.01600000 </v>
   <v>       0.01600000 </v>
   <v>       0.01600000 </v>
   <v>       0.01600000 </v>
   <v>       0.01600000 </v>
   <v>       0.01600000 </v>
   <v>       0.01600000 </v>
   <v>       0.01600000 </v>
   <v>       0.01600000 </v>
   <v>       0.01600000 </v>
   <v>       0.01600000 </v>
   <v>       0.01600000 </v>
   <v>       0.01600000 </v>
   <v>       0.01600000 </v>
   <v>       0.01600000 </v>
   <v>       0.01600000 </v>
   <v>       0.01600000 </v>
   <v>       0.01600000 </v>
   <v>       0.01600000 </v>
   <v>       0.01600000 </v>
   <v>       0.01600000 </v>
   <v>       0.01600000 </v>
   <v>       0.01600000 </v>
   <v>       0.01600000 </v>
   <v>       0.01600000 </v>
   <v>       0.01600000 </v>
   <v>       0.01600000 </v>
   <v>       0.01600000 </v>
   <v>       0.01600000 </v>
   <v>       0.01600000 </v>
   <v>       0.01600000 </v>
   <v>       0.01600000 </v>
   <v>       0.01600000 </v>
   <v>       0.01600000 </v>
   <v>       0.01600000 </v>
   <v>       0.01600000 </v>
   <v>       0.01600000 </v>
   <v>       0.01600000 </v>
   <v>       0.01600000 </v>
   <v>       0.01600000 </v>
   <v>       0.01600000 </v>
   <v>       0.01600000 </v>
   <v>       0.01600000 </v>
   <v>       0.01600000 </v>
   <v>       0.01600000 </v>
   <v>       0.01600000 </v>
   <v>       0.01600000 </v>
   <v>       0.01600000 </v>
   <v>       0.01600000 </v>
   <v>       0.01600000 </v>
   <v>       0.01600000 </v>
   <v>       0.01600000 </v>
   <v>       0.01600000 </v>
   <v>       0.01600000 </v>
   <v>       0.01600000 </v>
   <v>       0.01600000 </v>
   <v>       0.01600000 </v>
   <v>       0.01600000 </v>
   <v>       0.01600000 </v>
   <v>       0.01600000 </v>
   <v>       0.01600000 </v>
  </varray>
 </kpoints>
 <parameters>
  <separator name="general" >
   <i type="string" name="SYSTEM">Isif_5_isif_7_pyxtal_struct_0</i>
   <i type="logical" name="LCOMPAT"> F  </i>
  </separator>
  <separator name="electronic" >
   <i type="string" name="PREC">accura</i>
   <i name="ENMAX">    400.00000000</i>
   <i name="ENAUG">    291.05200000</i>
   <i name="EDIFF">      0.00001000</i>
   <i type="int" name="IALGO">    48</i>
   <i type="int" name="IWAVPR">    11</i>
   <i type="int" name="NBANDS">     5</i>
   <i name="NELECT">      3.00000000</i>
   <i type="int" name="TURBO">     0</i>
   <i type="int" name="IRESTART">     0</i>
   <i type="int" name="NREBOOT">     0</i>
   <i type="int" name="NMIN">     0</i>
   <i name="EREF">      0.00000000</i>
   <separator name="electronic smearing" >
    <i type="int" name="ISMEAR">     1</i>
    <i name="SIGMA">      0.20000000</i>
    <i name="KSPACING">      0.50000000</i>
    <i type="logical" name="KGAMMA"> T  </i>
   </separator>
   <separator name="electronic projectors" >
    <i type="logical" name="LREAL"> F  </i>
    <v name="ROPT">      0.00000000</v>
    <i type="int" name="LMAXPAW">  -100</i>
    <i type="int" name="LMAXMIX">     2</i>
    <i type="logical" name="NLSPLINE"> F  </i>
   </separator>
   <separator name="electronic startup" >
    <i type="int" name="ISTART">     0</i>
    <i type="int" name="ICHARG">     2</i>
    <i type="int" name="INIWAV">     1</i>
   </separator>
   <separator name="electronic spin" >
    <i type="int" name="ISPIN">     1</i>
    <i type="logical" name="LNONCOLLINEAR"> F  </i>
    <v name="MAGMOM">     -3.00000000</v>
    <i name="NUPDOWN">     -1.00000000</i>
    <i type="logical" name="LSORBIT"> F  </i>
    <v name="SAXIS">      0.00000000      0.00000000      1.00000000</v>
    <i type="logical" name="LSPIRAL"> F  </i>
    <v name="QSPIRAL">      0.00000000      0.00000000      0.00000000</v>
    <i type="logical" name="LZEROZ"> F  </i>
   </separator>
   <separator name="electronic exchange-correlation" >
    <i type="logical" name="LASPH"> F  </i>
    <i type="logical" name="LMETAGGA"> F  </i>
   </separator>
   <separator name="electronic convergence" >
    <i type="int" name="NELM">   240</i>
    <i type="int" name="NELMDL">   -12</i>
    <i type="int" name="NELMIN">     2</i>
    <i name="ENINI">    400.00000000</i>
    <separator name="electronic convergence detail" >
     <i type="logical" name="LDIAG"> T  </i>
     <i type="logical" name="LSUBROT"> F  </i>
     <i name="WEIMIN">      0.00100000</i>
     <i name="EBREAK">      0.00000050</i>
     <i name="DEPER">      0.30000000</i>
     <i type="int" name="NRMM">     4</i>
     <i name="TIME">      0.40000000</i>
    </separator>
   </separator>
   <separator name="electronic mixer" >
    <i name="AMIX">      0.40000000</i>
    <i name="BMIX">      1.00000000</i>
    <i name="AMIN">      0.10000000</i>
    <i name="AMIX_MAG">      1.60000000</i>
    <i name="BMIX_MAG">      1.00000000</i>
    <separator name="electronic mixer details" >
     <i type="int" name="IMIX">     4</i>
     <i type="logical" name="MIXFIRST"> F  </i>
     <i type="int" name="MAXMIX">   -45</i>
     <i name="WC">    100.00000000</i>
     <i type="int" name="INIMIX">     1</i>
     <i type="int" name="MIXPRE">     1</i>
     <i type="int" name="MREMOVE">     5</i>
    </separator>
   </separator>
   <separator name="electronic dipolcorrection" >
    <i type="logical" name="LDIPOL"> F  </i>
    <i type="logical" name="LMONO"> F  </i>
    <i type="int" name="IDIPOL">     0</i>
    <i name="EPSILON">      1.00000000</i>
    <v name="DIPOL">   -100.00000000   -100.00000000   -100.00000000</v>
    <i name="EFIELD">      0.00000000</i>
   </separator>
  </separator>
  <separator name="grids" >
   <i type="int" name="NGX">    24</i>
   <i type="int" name="NGY">    20</i>
   <i type="int" name="NGZ">    24</i>
   <i type="int" name="NGXF">    48</i>
   <i type="int" name="NGYF">    40</i>
   <i type="int" name="NGZF">    48</i>
   <i type="logical" name="ADDGRID"> F  </i>
  </separator>
  <separator name="ionic" >
   <i type="int" name="NSW">   200</i>
   <i type="int" name="IBRION">     2</i>
   <i type="int" name="MDALGO">     0</i>
   <i type="int" name="ISIF">     5</i>
   <i name="PSTRESS">      0.00000000</i>
   <i name="EDIFFG">      0.00010000</i>
   <i type="int" name="NFREE">     1</i>
   <i name="POTIM">      0.50000000</i>
   <i name="SMASS">     -3.00000000</i>
   <i name="SCALEE">      1.00000000</i>
  </separator>
  <separator name="ionic md" >
   <i name="TEBEG">      0.00010000</i>
   <i name="TEEND">      0.00010000</i>
   <i type="int" name="NBLOCK">     1</i>
   <i type="int" name="KBLOCK">   200</i>
   <i type="int" name="NPACO">   256</i>
   <i name="APACO">     16.00000000</i>
  </separator>
  <separator name="symmetry" >
   <i type="int" name="ISYM">     2</i>
   <i name="SYMPREC">      0.00001000</i>
  </separator>
  <separator name="dos" >
   <i type="int" name="LORBIT">    10</i>
   <v name="RWIGS">     -1.00000000</v>
   <i type="int" name="NEDOS">   301</i>
   <i name="EMIN">     10.00000000</i>
   <i name="EMAX">    -10.00000000</i>
   <i name="EFERMI">      0.00000000</i>
  </separator>
  <separator name="writing" >
   <i type="int" name="NWRITE">     2</i>
   <i type="logical" name="LWAVE"> T  </i>
   <i type="logical" name="LDOWNSAMPLE"> F  </i>
   <i type="logical" name="LCHARG"> T  </i>
   <i type="logical" name="LPARD"> F  </i>
   <i type="logical" name="LVTOT"> F  </i>
   <i type="logical" name="LVHAR"> F  </i>
   <i type="logical" name="LELF"> F  </i>
   <i type="logical" name="LOPTICS"> F  </i>
   <v name="STM">      0.00000000      0.00000000      0.00000000      0.00000000      0.00000000      0.00000000      0.00000000</v>
  </separator>
  <separator name="performance" >
   <i type="int" name="NPAR">     5</i>
   <i type="int" name="NSIM">     1</i>
   <i type="int" name="NBLK">    -1</i>
   <i type="logical" name="LPLANE"> F  </i>
   <i type="logical" name="LSCALAPACK"> T  </i>
   <i type="logical" name="LSCAAWARE"> F  </i>
   <i type="logical" name="LSCALU"> F  </i>
   <i type="logical" name="LASYNC"> F  </i>
   <i type="logical" name="LORBITALREAL"> F  </i>
  </separator>
  <separator name="miscellaneous" >
   <i type="int" name="IDIOT">     3</i>
   <i type="int" name="ISPECIAL">     0</i>
   <i type="logical" name="LMUSIC"> F  </i>
   <v name="POMASS">     26.98100000</v>
   <v name="DARWINR">      0.00000000</v>
   <v name="DARWINV">      1.00000000</v>
   <i type="logical" name="LCORR"> T  </i>
  </separator>
  <i type="logical" name="GGA_COMPAT"> T  </i>
  <i type="logical" name="LBERRY"> F  </i>
  <i type="int" name="ICORELEVEL">     0</i>
  <i type="logical" name="LDAU"> F  </i>
  <i type="int" name="I_CONSTRAINED_M">     0</i>
  <separator name="electronic exchange-correlation" >
   <i type="string" name="GGA">PE</i>
   <i type="int" name="VOSKOWN">     0</i>
   <i type="logical" name="LHFCALC"> F  </i>
   <i type="string" name="PRECFOCK"></i>
   <i type="logical" name="LSYMGRAD"> F  </i>
   <i type="logical" name="LHFONE"> F  </i>
   <i type="logical" name="LRHFCALC"> F  </i>
   <i type="logical" name="LTHOMAS"> F  </i>
   <i type="logical" name="LMODELHF"> F  </i>
   <i name="ENCUT4O">     -1.00000000</i>
   <i type="int" name="EXXOEP">     0</i>
   <i type="int" name="FOURORBIT">     0</i>
   <i name="AEXX">      0.00000000</i>
   <i name="HFALPHA">      0.00000000</i>
   <i name="MCALPHA">      0.00000000</i>
   <i name="ALDAX">      1.00000000</i>
   <i name="AGGAX">      1.00000000</i>
   <i name="ALDAC">      1.00000000</i>
   <i name="AGGAC">      1.00000000</i>
   <i type="int" name="NKREDX">     1</i>
   <i type="int" name="NKREDY">     1</i>
   <i type="int" name="NKREDZ">     1</i>
   <i type="logical" name="SHIFTRED"> F  </i>
   <i type="logical" name="ODDONLY"> F  </i>
   <i type="logical" name="EVENONLY"> F  </i>
   <i type="int" name="LMAXFOCK">     0</i>
   <i type="int" name="NMAXFOCKAE">     0</i>
   <i type="logical" name="LFOCKAEDFT"> F  </i>
   <i name="HFSCREEN">      0.00000000</i>
   <i name="HFSCREENC">      0.00000000</i>
   <i type="int" name="NBANDSGWLOW">     0</i>
  </separator>
  <separator name="vdW DFT" >
   <i type="logical" name="LUSE_VDW"> F  </i>
   <i name="Zab_VDW">     -0.84910000</i>
   <i name="PARAM1">      0.12340000</i>
   <i name="PARAM2">      1.00000000</i>
   <i name="PARAM3">      0.00000000</i>
  </separator>
  <separator name="model GW" >
   <i type="int" name="MODEL_GW">     0</i>
   <i name="MODEL_EPS0">     15.64299903</i>
   <i name="MODEL_ALPHA">      1.00000000</i>
  </separator>
  <separator name="linear response parameters" >
   <i type="logical" name="LEPSILON"> F  </i>
   <i type="logical" name="LRPA"> F  </i>
   <i type="logical" name="LNABLA"> F  </i>
   <i type="logical" name="LVEL"> F  </i>
   <i type="int" name="KINTER">     0</i>
   <i name="CSHIFT">      0.10000000</i>
   <i name="OMEGAMAX">     -1.00000000</i>
   <i name="DEG_THRESHOLD">      0.00200000</i>
   <i name="RTIME">     -0.10000000</i>
   <i name="WPLASMAI">      0.00000000</i>
   <v name="DFIELD">      0.00000000      0.00000000      0.00000000</v>
   <v name="WPLASMA">      0.00000000      0.00000000      0.00000000      0.00000000      0.00000000      0.00000000      0.00000000      0.00000000      0.00000000</v>
  </separator>
  <separator name="orbital magnetization" >
   <i type="logical" name="NUCIND"> F  </i>
   <v name="MAGPOS">      0.00000000      0.00000000      0.00000000</v>
   <i type="logical" name="LNICSALL"> T  </i>
   <i type="logical" name="ORBITALMAG"> F  </i>
   <i type="logical" name="LMAGBLOCH"> F  </i>
   <i type="logical" name="LCHIMAG"> F  </i>
   <i type="logical" name="LGAUGE"> T  </i>
   <i type="int" name="MAGATOM">     0</i>
   <v name="MAGDIPOL">      0.00000000      0.00000000      0.00000000</v>
   <v name="AVECCONST">      0.00000000      0.00000000      0.00000000</v>
  </separator>
  <separator name="response functions" >
   <i type="logical" name="LADDER"> F  </i>
   <i type="logical" name="LRPAFORCE"> F  </i>
   <i type="logical" name="LFXC"> F  </i>
   <i type="logical" name="LHARTREE"> T  </i>
   <i type="int" name="IBSE">     0</i>
   <v type="int" name="KPOINT">    -1     0     0     0</v>
   <i type="logical" name="LTCTE"> F  </i>
   <i type="logical" name="LTETE"> F  </i>
   <i type="logical" name="LTRIPLET"> F  </i>
   <i type="logical" name="LFXCEPS"> F  </i>
   <i type="logical" name="LFXHEG"> F  </i>
   <i type="int" name="NATURALO">     2</i>
   <i type="logical" name="L2ORDER"> F  </i>
   <i type="logical" name="LMP2LT"> F  </i>
   <i type="logical" name="LUSEW"> F  </i>
   <i name="ENCUTGW">     -2.00000000</i>
   <i name="ENCUTGWSOFT">     -2.00000000</i>
   <i name="ENCUTLF">     -1.00000000</i>
   <i type="int" name="LMAXMP2">    -1</i>
   <i name="SCISSOR">      0.00000000</i>
   <i type="int" name="NOMEGA">     0</i>
   <i type="int" name="NOMEGAR">     0</i>
   <i type="int" name="NBANDSGW">    -1</i>
   <i type="int" name="NBANDSO">    -1</i>
   <i type="int" name="NBANDSV">    -1</i>
   <i type="int" name="NELM">   240</i>
   <i type="int" name="NELMHF">     1</i>
   <i type="int" name="DIM">     3</i>
   <i type="int" name="ANTIRES">     0</i>
   <i name="OMEGAMAX">    -30.00000000</i>
   <i name="OMEGAMIN">    -30.00000000</i>
   <i name="OMEGATL">   -200.00000000</i>
   <i type="int" name="OMEGAGRID">   140</i>
   <i name="CSHIFT">     -0.10000000</i>
   <i type="logical" name="SELFENERGY"> F  </i>
   <i type="logical" name="LSPECTRAL"> F  </i>
   <i type="logical" name="LSPECTRALGW"> F  </i>
   <i type="logical" name="LSINGLES"> F  </i>
   <i type="logical" name="LFERMIGW"> F  </i>
   <i type="logical" name="ODDONLYGW"> F  </i>
   <i type="logical" name="EVENONLYGW"> F  </i>
   <i type="int" name="NKREDLFX">     1</i>
   <i type="int" name="NKREDLFY">     1</i>
   <i type="int" name="NKREDLFZ">     1</i>
   <i type="int" name="MAXMEM">  2800</i>
   <i type="int" name="TELESCOPE">     0</i>
   <i type="int" name="TAUPAR">     1</i>
   <i type="int" name="OMEGAPAR">    -1</i>
   <i name="LAMBDA">      1.00000000</i>
  </separator>
  <separator name="External order field" >
   <i name="OFIELD_KAPPA">      0.00000000</i>
   <v name="OFIELD_K">      0.00000000      0.00000000      0.00000000</v>
   <i name="OFIELD_Q6_NEAR">      0.00000000</i>
   <i name="OFIELD_Q6_FAR">      0.00000000</i>
   <i name="OFIELD_A">      0.00000000</i>
  </separator>
 </parameters>
 <atominfo>
  <atoms>       1 </atoms>
  <types>       1 </types>
  <array name="atoms" >
   <dimension dim="1">ion</dimension>
   <field type="string">element</field>
   <field type="int">atomtype</field>
   <set>
    <rc><c>Al</c><c>   1</c></rc>
   </set>
  </array>
  <array name="atomtypes" >
   <dimension dim="1">type</dimension>
   <field type="int">atomspertype</field>
   <field type="string">element</field>
   <field>mass</field>
   <field>valence</field>
   <field type="string">pseudopotential</field>
   <set>
    <rc><c>   1</c><c>Al</c><c>     26.98100000</c><c>      3.00000000</c><c>  PAW_PBE Al 04Jan2001                  </c></rc>
   </set>
  </array>
 </atominfo>
 <structure name="initialpos" >
  <crystal>
   <varray name="basis" >
    <v>       2.95270701       0.25982161      -1.14889801 </v>
    <v>       0.02105904       3.05066754       0.53921677 </v>
    <v>      -0.82281353       0.08251783       3.24409826 </v>
   </varray>
   <i name="volume">     26.07166505 </i>
   <varray name="rec_basis" >
    <v>       0.37788803      -0.01963789       0.09634476 </v>
    <v>      -0.03596592       0.33114659      -0.01754532 </v>
    <v>       0.13980718      -0.06199619       0.34528887 </v>
   </varray>
  </crystal>
  <varray name="positions" >
   <v>       0.92371990       0.41872333       0.93385728 </v>
  </varray>
 </structure>
 <calculation>
  <scstep>
   <time name="diag">    0.03    0.03</time>
   <time name="diis">    0.01    0.01</time>
   <time name="orth">    0.00    0.00</time>
   <time name="total">    0.05    0.05</time>
   <energy>
    <i name="alphaZ">     -0.12882990 </i>
    <i name="ewald">    -62.57441499 </i>
    <i name="hartreedc">     -0.76432166 </i>
    <i name="XCdc">    -26.95250686 </i>
    <i name="pawpsdc">     66.20015713 </i>
    <i name="pawaedc">    -34.24562076 </i>
    <i name="eentropy">      0.00000137 </i>
    <i name="bandstr">      6.20197501 </i>
    <i name="atom">     53.53815432 </i>
    <i name="e_fr_energy">      1.27459367 </i>
    <i name="e_wo_entrp">      1.27459230 </i>
    <i name="e_0_energy">      1.27459321 </i>
   </energy>
  </scstep>
  <scstep>
   <time name="diag">    0.02    0.02</time>
   <time name="diis">    0.01    0.01</time>
   <time name="orth">    0.00    0.00</time>
   <time name="total">    0.03    0.03</time>
   <energy>
    <i name="e_fr_energy">     -2.79119450 </i>
    <i name="e_wo_entrp">     -2.79229178 </i>
    <i name="e_0_energy">     -2.79156026 </i>
   </energy>
  </scstep>
  <scstep>
   <time name="diag">    0.02    0.02</time>
   <time name="diis">    0.01    0.01</time>
   <time name="orth">    0.00    0.00</time>
   <time name="total">    0.03    0.03</time>
   <energy>
    <i name="e_fr_energy">     -3.20692662 </i>
    <i name="e_wo_entrp">     -3.20574610 </i>
    <i name="e_0_energy">     -3.20653312 </i>
   </energy>
  </scstep>
  <scstep>
   <time name="diag">    0.02    0.02</time>
   <time name="diis">    0.01    0.01</time>
   <time name="orth">    0.00    0.00</time>
   <time name="total">    0.03    0.03</time>
   <energy>
    <i name="e_fr_energy">     -3.27403047 </i>
    <i name="e_wo_entrp">     -3.27422468 </i>
    <i name="e_0_energy">     -3.27409521 </i>
   </energy>
  </scstep>
  <scstep>
   <time name="diag">    0.02    0.02</time>
   <time name="diis">    0.01    0.01</time>
   <time name="orth">    0.00    0.00</time>
   <time name="total">    0.03    0.03</time>
   <energy>
    <i name="e_fr_energy">     -3.28175581 </i>
    <i name="e_wo_entrp">     -3.28195214 </i>
    <i name="e_0_energy">     -3.28182126 </i>
   </energy>
  </scstep>
  <scstep>
   <time name="diag">    0.02    0.02</time>
   <time name="diis">    0.01    0.01</time>
   <time name="orth">    0.00    0.00</time>
   <time name="total">    0.03    0.03</time>
   <energy>
    <i name="e_fr_energy">     -3.28290002 </i>
    <i name="e_wo_entrp">     -3.28310172 </i>
    <i name="e_0_energy">     -3.28296725 </i>
   </energy>
  </scstep>
  <scstep>
   <time name="diag">    0.02    0.02</time>
   <time name="diis">    0.01    0.01</time>
   <time name="orth">    0.00    0.00</time>
   <time name="total">    0.03    0.03</time>
   <energy>
    <i name="e_fr_energy">     -3.28313381 </i>
    <i name="e_wo_entrp">     -3.28333657 </i>
    <i name="e_0_energy">     -3.28320140 </i>
   </energy>
  </scstep>
  <scstep>
   <time name="diag">    0.02    0.02</time>
   <time name="diis">    0.01    0.01</time>
   <time name="orth">    0.00    0.00</time>
   <time name="total">    0.03    0.03</time>
   <energy>
    <i name="e_fr_energy">     -3.28319030 </i>
    <i name="e_wo_entrp">     -3.28339320 </i>
    <i name="e_0_energy">     -3.28325794 </i>
   </energy>
  </scstep>
  <scstep>
   <time name="diag">    0.02    0.02</time>
   <time name="diis">    0.01    0.01</time>
   <time name="orth">    0.00    0.00</time>
   <time name="total">    0.03    0.03</time>
   <energy>
    <i name="e_fr_energy">     -3.28320819 </i>
    <i name="e_wo_entrp">     -3.28341111 </i>
    <i name="e_0_energy">     -3.28327583 </i>
   </energy>
  </scstep>
  <scstep>
   <time name="diag">    0.02    0.02</time>
   <time name="diis">    0.01    0.01</time>
   <time name="orth">    0.00    0.00</time>
   <time name="total">    0.03    0.03</time>
   <energy>
    <i name="e_fr_energy">     -3.28321004 </i>
    <i name="e_wo_entrp">     -3.28341295 </i>
    <i name="e_0_energy">     -3.28327768 </i>
   </energy>
  </scstep>
  <scstep>
   <time name="diag">    0.02    0.02</time>
   <time name="diis">    0.01    0.01</time>
   <time name="orth">    0.00    0.00</time>
   <time name="total">    0.03    0.03</time>
   <energy>
    <i name="e_fr_energy">     -3.28321026 </i>
    <i name="e_wo_entrp">     -3.28341318 </i>
    <i name="e_0_energy">     -3.28327790 </i>
   </energy>
  </scstep>
  <scstep>
   <time name="diag">    0.02    0.02</time>
   <time name="diis">    0.01    0.01</time>
   <time name="orth">    0.00    0.00</time>
   <time name="total">    0.04    0.04</time>
   <energy>
    <i name="e_fr_energy">     -3.28321034 </i>
    <i name="e_wo_entrp">     -3.28341325 </i>
    <i name="e_0_energy">     -3.28327797 </i>
   </energy>
  </scstep>
  <scstep>
   <time name="diag">    0.02    0.02</time>
   <time name="diis">    0.01    0.01</time>
   <time name="orth">    0.00    0.00</time>
   <time name="total">    0.05    0.05</time>
   <energy>
    <i name="e_fr_energy">     -3.27599240 </i>
    <i name="e_wo_entrp">     -3.27629986 </i>
    <i name="e_0_energy">     -3.27609488 </i>
   </energy>
  </scstep>
  <scstep>
   <time name="diag">    0.02    0.02</time>
   <time name="diis">    0.01    0.01</time>
   <time name="orth">    0.00    0.00</time>
   <time name="total">    0.04    0.04</time>
   <energy>
    <i name="e_fr_energy">     -3.27095115 </i>
    <i name="e_wo_entrp">     -3.27138297 </i>
    <i name="e_0_energy">     -3.27109509 </i>
   </energy>
  </scstep>
  <scstep>
   <time name="diag">    0.02    0.02</time>
   <time name="diis">    0.01    0.01</time>
   <time name="orth">    0.00    0.00</time>
   <time name="total">    0.04    0.04</time>
   <energy>
    <i name="alphaZ">     -0.12882990 </i>
    <i name="ewald">    -62.57441499 </i>
    <i name="hartreedc">     -0.58148950 </i>
    <i name="XCdc">    -26.92009040 </i>
    <i name="pawpsdc">     86.64638367 </i>
    <i name="pawaedc">    -54.67572559 </i>
    <i name="eentropy">      0.00042739 </i>
    <i name="bandstr">      1.42463609 </i>
    <i name="atom">     53.53815432 </i>
    <i name="e_fr_energy">     -3.27094892 </i>
    <i name="e_wo_entrp">     -3.27137630 </i>
    <i name="e_0_energy">     -3.27109138 </i>
   </energy>
  </scstep>
  <structure>
   <crystal>
    <varray name="basis" >
     <v>       2.95270701       0.25982161      -1.14889801 </v>
     <v>       0.02105904       3.05066754       0.53921677 </v>
     <v>      -0.82281353       0.08251783       3.24409826 </v>
    </varray>
    <i name="volume">     26.07166505 </i>
    <varray name="rec_basis" >
     <v>       0.37788803      -0.01963789       0.09634476 </v>
     <v>      -0.03596592       0.33114659      -0.01754532 </v>
     <v>       0.13980718      -0.06199619       0.34528887 </v>
    </varray>
   </crystal>
   <varray name="positions" >
    <v>       0.92371990       0.41872333       0.93385728 </v>
   </varray>
  </structure>
  <varray name="forces" >
   <v>      -0.00000000      -0.00000000       0.00000000 </v>
  </varray>
  <varray name="stress" >
   <v>     -94.65449282       0.52647514      24.60418795 </v>
   <v>       0.52647518     -94.24729502     -10.14930372 </v>
   <v>      24.60418796     -10.14930373    -129.27638199 </v>
  </varray>
  <energy>
   <i name="e_fr_energy">     -3.27094892 </i>
   <i name="e_wo_entrp">     -3.27109138 </i>
   <i name="e_0_energy">      0.00042739 </i>
  </energy>
  <time name="totalsc">    0.62    0.62</time>
 </calculation>
 <calculation>
  <scstep>
   <time name="diag">    0.02    0.02</time>
   <time name="diis">    0.01    0.01</time>
   <time name="orth">    0.00    0.00</time>
   <time name="total">    0.04    0.04</time>
   <energy>
    <i name="alphaZ">     -0.12882990 </i>
    <i name="ewald">    -62.58833630 </i>
    <i name="hartreedc">     -0.57938770 </i>
    <i name="XCdc">    -26.91986063 </i>
    <i name="pawpsdc">     85.94982871 </i>
    <i name="pawaedc">    -53.97940518 </i>
    <i name="eentropy">      0.00052282 </i>
    <i name="bandstr">      1.41177020 </i>
    <i name="atom">     53.53815432 </i>
    <i name="e_fr_energy">     -3.29554366 </i>
    <i name="e_wo_entrp">     -3.29606648 </i>
    <i name="e_0_energy">     -3.29571794 </i>
   </energy>
  </scstep>
  <scstep>
   <time name="diag">    0.02    0.02</time>
   <time name="diis">    0.01    0.01</time>
   <time name="orth">    0.00    0.00</time>
   <time name="total">    0.04    0.04</time>
   <energy>
    <i name="e_fr_energy">     -3.29390108 </i>
    <i name="e_wo_entrp">     -3.29446626 </i>
    <i name="e_0_energy">     -3.29408947 </i>
   </energy>
  </scstep>
  <scstep>
   <time name="diag">    0.02    0.02</time>
   <time name="diis">    0.01    0.01</time>
   <time name="orth">    0.00    0.00</time>
   <time name="total">    0.04    0.04</time>
   <energy>
    <i name="e_fr_energy">     -3.29303990 </i>
    <i name="e_wo_entrp">     -3.29364110 </i>
    <i name="e_0_energy">     -3.29324030 </i>
   </energy>
  </scstep>
  <scstep>
   <time name="diag">    0.02    0.02</time>
   <time name="diis">    0.01    0.01</time>
   <time name="orth">    0.00    0.00</time>
   <time name="total">    0.04    0.04</time>
   <energy>
    <i name="alphaZ">     -0.12882990 </i>
    <i name="ewald">    -62.58833630 </i>
    <i name="hartreedc">     -0.55978799 </i>
    <i name="XCdc">    -26.92204116 </i>
    <i name="pawpsdc">     84.99699587 </i>
    <i name="pawaedc">    -53.02478986 </i>
    <i name="eentropy">      0.00060095 </i>
    <i name="bandstr">      1.39498912 </i>
    <i name="atom">     53.53815432 </i>
    <i name="e_fr_energy">     -3.29304495 </i>
    <i name="e_wo_entrp">     -3.29364590 </i>
    <i name="e_0_energy">     -3.29324526 </i>
   </energy>
  </scstep>
  <structure>
   <crystal>
    <varray name="basis" >
     <v>       2.95774155       0.27266806      -1.07324359 </v>
     <v>       0.03293108       3.07537769       0.50560586 </v>
     <v>      -0.76766299       0.05710854       3.16915127 </v>
    </varray>
    <i name="volume">     26.07166505 </i>
    <varray name="rec_basis" >
     <v>       0.37272121      -0.01889018       0.09062460 </v>
     <v>      -0.03549515       0.32792846      -0.01450730 </v>
     <v>       0.13188617      -0.05871487       0.34854671 </v>
    </varray>
   </crystal>
   <varray name="positions" >
    <v>       0.92371990       0.41872333       0.93385728 </v>
   </varray>
  </structure>
  <varray name="forces" >
   <v>       0.00000000       0.00000000       0.00000000 </v>
  </varray>
  <varray name="stress" >
   <v>    -100.09539440       3.65869804       8.38749324 </v>
   <v>       3.65869799    -107.48167088      -8.93446629 </v>
   <v>       8.38749321      -8.93446621    -126.07211871 </v>
  </varray>
  <energy>
   <i name="e_fr_energy">     -3.29304495 </i>
   <i name="e_wo_entrp">     -3.29324526 </i>
   <i name="e_0_energy">      0.00060095 </i>
  </energy>
  <time name="totalsc">    0.20    0.20</time>
 </calculation>
 <calculation>
  <scstep>
   <time name="diag">    0.02    0.02</time>
   <time name="diis">    0.01    0.01</time>
   <time name="orth">    0.00    0.00</time>
   <time name="total">    0.04    0.04</time>
   <energy>
    <i name="alphaZ">     -0.12882990 </i>
    <i name="ewald">    -62.58045546 </i>
    <i name="hartreedc">     -0.56092137 </i>
    <i name="XCdc">    -26.92209079 </i>
    <i name="pawpsdc">     84.95914388 </i>
    <i name="pawaedc">    -52.98699403 </i>
    <i name="eentropy">     -0.00011016 </i>
    <i name="bandstr">      1.38219022 </i>
    <i name="atom">     53.53815432 </i>
    <i name="e_fr_energy">     -3.29991328 </i>
    <i name="e_wo_entrp">     -3.29980312 </i>
    <i name="e_0_energy">     -3.29987656 </i>
   </energy>
  </scstep>
  <scstep>
   <time name="diag">    0.02    0.02</time>
   <time name="diis">    0.01    0.01</time>
   <time name="orth">    0.00    0.00</time>
   <time name="total">    0.04    0.04</time>
   <energy>
    <i name="e_fr_energy">     -3.29910172 </i>
    <i name="e_wo_entrp">     -3.29896602 </i>
    <i name="e_0_energy">     -3.29905648 </i>
   </energy>
  </scstep>
  <scstep>
   <time name="diag">    0.02    0.02</time>
   <time name="diis">    0.01    0.01</time>
   <time name="orth">    0.00    0.00</time>
   <time name="total">    0.04    0.04</time>
   <energy>
    <i name="e_fr_energy">     -3.29868398 </i>
    <i name="e_wo_entrp">     -3.29850158 </i>
    <i name="e_0_energy">     -3.29862318 </i>
   </energy>
  </scstep>
  <scstep>
   <time name="diag">    0.02    0.02</time>
   <time name="diis">    0.01    0.01</time>
   <time name="orth">    0.00    0.00</time>
   <time name="total">    0.03    0.04</time>
   <energy>
    <i name="alphaZ">     -0.12882990 </i>
    <i name="ewald">    -62.58045546 </i>
    <i name="hartreedc">     -0.56272906 </i>
    <i name="XCdc">    -26.92197503 </i>
    <i name="pawpsdc">     84.88409645 </i>
    <i name="pawaedc">    -52.91168456 </i>
    <i name="eentropy">     -0.00018537 </i>
    <i name="bandstr">      1.38492277 </i>
    <i name="atom">     53.53815432 </i>
    <i name="e_fr_energy">     -3.29868584 </i>
    <i name="e_wo_entrp">     -3.29850047 </i>
    <i name="e_0_energy">     -3.29862405 </i>
   </energy>
  </scstep>
  <structure>
   <crystal>
    <varray name="basis" >
     <v>       2.96177905       0.28113206      -1.02407503 </v>
     <v>       0.04069773       3.09230283       0.48376907 </v>
     <v>      -0.73181639       0.04051813       3.12097467 </v>
    </varray>
    <i name="volume">     26.07166505 </i>
    <varray name="rec_basis" >
     <v>       0.36942011      -0.01845094       0.08686238 </v>
     <v>      -0.03524515       0.32580207      -0.01249413 </v>
     <v>       0.12667979      -0.05655545       0.35085125 </v>
    </varray>
   </crystal>
   <varray name="positions" >
    <v>       0.92371990       0.41872333       0.93385728 </v>
   </varray>
  </structure>
  <varray name="forces" >
   <v>       0.00000000      -0.00000000       0.00000000 </v>
  </varray>
  <varray name="stress" >
   <v>    -104.79318961       2.57883405      -4.24058058 </v>
   <v>       2.57883402    -111.93136573      -7.84616135 </v>
   <v>      -4.24058060      -7.84616135    -119.87761739 </v>
  </varray>
  <energy>
   <i name="e_fr_energy">     -3.29868584 </i>
   <i name="e_wo_entrp">     -3.29862405 </i>
   <i name="e_0_energy">     -0.00018537 </i>
  </energy>
  <time name="totalsc">    0.20    0.20</time>
 </calculation>
 <calculation>
  <scstep>
   <time name="diag">    0.02    0.02</time>
   <time name="diis">    0.01    0.01</time>
   <time name="orth">    0.00    0.00</time>
   <time name="total">    0.04    0.04</time>
   <energy>
    <i name="alphaZ">     -0.12882990 </i>
    <i name="ewald">    -62.57640592 </i>
    <i name="hartreedc">     -0.56325568 </i>
    <i name="XCdc">    -26.92196107 </i>
    <i name="pawpsdc">     84.88497382 </i>
    <i name="pawaedc">    -52.91255981 </i>
    <i name="eentropy">     -0.00062338 </i>
    <i name="bandstr">      1.38148067 </i>
    <i name="atom">     53.53815432 </i>
    <i name="e_fr_energy">     -3.29902695 </i>
    <i name="e_wo_entrp">     -3.29840356 </i>
    <i name="e_0_energy">     -3.29881915 </i>
   </energy>
  </scstep>
  <scstep>
   <time name="diag">    0.02    0.02</time>
   <time name="diis">    0.01    0.01</time>
   <time name="orth">    0.00    0.00</time>
   <time name="total">    0.04    0.04</time>
   <energy>
    <i name="e_fr_energy">     -3.29897682 </i>
    <i name="e_wo_entrp">     -3.29835194 </i>
    <i name="e_0_energy">     -3.29876853 </i>
   </energy>
  </scstep>
  <scstep>
   <time name="diag">    0.02    0.02</time>
   <time name="diis">    0.01    0.01</time>
   <time name="orth">    0.00    0.00</time>
   <time name="total">    0.04    0.04</time>
   <energy>
    <i name="e_fr_energy">     -3.29895196 </i>
    <i name="e_wo_entrp">     -3.29832402 </i>
    <i name="e_0_energy">     -3.29874265 </i>
   </energy>
  </scstep>
  <scstep>
   <time name="diag">    0.02    0.02</time>
   <time name="diis">    0.01    0.01</time>
   <time name="orth">    0.00    0.00</time>
   <time name="total">    0.03    0.03</time>
   <energy>
    <i name="alphaZ">     -0.12882990 </i>
    <i name="ewald">    -62.57640592 </i>
    <i name="hartreedc">     -0.56545221 </i>
    <i name="XCdc">    -26.92176377 </i>
    <i name="pawpsdc">     84.90375976 </i>
    <i name="pawaedc">    -52.93136774 </i>
    <i name="eentropy">     -0.00062912 </i>
    <i name="bandstr">      1.38358250 </i>
    <i name="atom">     53.53815432 </i>
    <i name="e_fr_energy">     -3.29895207 </i>
    <i name="e_wo_entrp">     -3.29832295 </i>
    <i name="e_0_energy">     -3.29874237 </i>
   </energy>
  </scstep>
  <structure>
   <crystal>
    <varray name="basis" >
     <v>       2.96286064       0.28321587      -1.01205221 </v>
     <v>       0.04260312       3.09654809       0.47843038 </v>
     <v>      -0.72305063       0.03645196       3.10925998 </v>
    </varray>
    <i name="volume">     26.07166505 </i>
    <varray name="rec_basis" >
     <v>       0.36861985      -0.01834918       0.08593674 </v>
     <v>      -0.03519081       0.32527800      -0.01199699 </v>
     <v>       0.12539926      -0.05602401       0.35143803 </v>
    </varray>
   </crystal>
   <varray name="positions" >
    <v>       0.92371990       0.41872333       0.93385728 </v>
   </varray>
  </structure>
  <varray name="forces" >
   <v>       0.00000000       0.00000000       0.00000000 </v>
  </varray>
  <varray name="stress" >
   <v>    -105.25403570       2.32829424      -7.14641318 </v>
   <v>       2.32829426    -112.52048724      -7.61390631 </v>
   <v>      -7.14641317      -7.61390633    -118.53773793 </v>
  </varray>
  <energy>
   <i name="e_fr_energy">     -3.29895207 </i>
   <i name="e_wo_entrp">     -3.29874237 </i>
   <i name="e_0_energy">     -0.00062912 </i>
  </energy>
  <time name="totalsc">    0.20    0.20</time>
 </calculation>
 <calculation>
  <scstep>
   <time name="diag">    0.02    0.02</time>
   <time name="diis">    0.01    0.01</time>
   <time name="orth">    0.00    0.00</time>
   <time name="total">    0.04    0.04</time>
   <energy>
    <i name="alphaZ">     -0.12882990 </i>
    <i name="ewald">    -62.55766669 </i>
    <i name="hartreedc">     -0.56655786 </i>
    <i name="XCdc">    -26.92180421 </i>
    <i name="pawpsdc">     84.90461853 </i>
    <i name="pawaedc">    -52.93222282 </i>
    <i name="eentropy">     -0.00043252 </i>
    <i name="bandstr">      1.36179375 </i>
    <i name="atom">     53.53815432 </i>
    <i name="e_fr_energy">     -3.30294739 </i>
    <i name="e_wo_entrp">     -3.30251488 </i>
    <i name="e_0_energy">     -3.30280322 </i>
   </energy>
  </scstep>
  <scstep>
   <time name="diag">    0.02    0.02</time>
   <time name="diis">    0.01    0.01</time>
   <time name="orth">    0.00    0.00</time>
   <time name="total">    0.04    0.04</time>
   <energy>
    <i name="e_fr_energy">     -3.30282839 </i>
    <i name="e_wo_entrp">     -3.30240048 </i>
    <i name="e_0_energy">     -3.30268575 </i>
   </energy>
  </scstep>
  <scstep>
   <time name="diag">    0.02    0.02</time>
   <time name="diis">    0.01    0.01</time>
   <time name="orth">    0.00    0.00</time>
   <time name="total">    0.04    0.04</time>
   <energy>
    <i name="e_fr_energy">     -3.30276344 </i>
    <i name="e_wo_entrp">     -3.30234369 </i>
    <i name="e_0_energy">     -3.30262352 </i>
   </energy>
  </scstep>
  <scstep>
   <time name="diag">    0.02    0.02</time>
   <time name="diis">    0.01    0.01</time>
   <time name="orth">    0.00    0.00</time>
   <time name="total">    0.04    0.04</time>
   <energy>
    <i name="alphaZ">     -0.12882990 </i>
    <i name="ewald">    -62.55766669 </i>
    <i name="hartreedc">     -0.57276237 </i>
    <i name="XCdc">    -26.92052200 </i>
    <i name="pawpsdc">     85.14526204 </i>
    <i name="pawaedc">    -53.17296195 </i>
    <i name="eentropy">     -0.00041947 </i>
    <i name="bandstr">      1.36698205 </i>
    <i name="atom">     53.53815432 </i>
    <i name="e_fr_energy">     -3.30276396 </i>
    <i name="e_wo_entrp">     -3.30234449 </i>
    <i name="e_0_energy">     -3.30262413 </i>
   </energy>
  </scstep>
  <structure>
   <crystal>
    <varray name="basis" >
     <v>       2.98981139       0.29825398      -1.01635285 </v>
     <v>       0.04798009       3.09606133       0.44892253 </v>
     <v>      -0.73970690       0.00955518       3.08489621 </v>
    </varray>
    <i name="volume">     26.07166505 </i>
    <varray name="rec_basis" >
     <v>       0.36617294      -0.01841404       0.08785923 </v>
     <v>      -0.03566301       0.32492956      -0.00955784 </v>
     <v>       0.12582947      -0.05335135       0.35449708 </v>
    </varray>
   </crystal>
   <varray name="positions" >
    <v>       0.92371990       0.41872333       0.93385728 </v>
   </varray>
  </structure>
  <varray name="forces" >
   <v>       0.00000000       0.00000000       0.00000000 </v>
  </varray>
  <varray name="stress" >
   <v>    -106.78571867      -0.49401005      -3.42833353 </v>
   <v>      -0.49401006    -113.30241908      -3.67926428 </v>
   <v>      -3.42833355      -3.67926427    -116.78640490 </v>
  </varray>
  <energy>
   <i name="e_fr_energy">     -3.30276396 </i>
   <i name="e_wo_entrp">     -3.30262413 </i>
   <i name="e_0_energy">     -0.00041947 </i>
  </energy>
  <time name="totalsc">    0.20    0.20</time>
 </calculation>
 <calculation>
  <scstep>
   <time name="diag">    0.02    0.02</time>
   <time name="diis">    0.01    0.01</time>
   <time name="orth">    0.00    0.00</time>
   <time name="total">    0.04    0.04</time>
   <energy>
    <i name="alphaZ">     -0.12882990 </i>
    <i name="ewald">    -62.54122868 </i>
    <i name="hartreedc">     -0.57381234 </i>
    <i name="XCdc">    -26.92052138 </i>
    <i name="pawpsdc">     85.14591224 </i>
    <i name="pawaedc">    -53.17358792 </i>
    <i name="eentropy">     -0.00002049 </i>
    <i name="bandstr">      1.34989248 </i>
    <i name="atom">     53.53815432 </i>
    <i name="e_fr_energy">     -3.30404166 </i>
    <i name="e_wo_entrp">     -3.30402117 </i>
    <i name="e_0_energy">     -3.30403483 </i>
   </energy>
  </scstep>
  <scstep>
   <time name="diag">    0.02    0.02</time>
   <time name="diis">    0.01    0.01</time>
   <time name="orth">    0.00    0.00</time>
   <time name="total">    0.04    0.04</time>
   <energy>
    <i name="e_fr_energy">     -3.30396984 </i>
    <i name="e_wo_entrp">     -3.30395019 </i>
    <i name="e_0_energy">     -3.30396329 </i>
   </energy>
  </scstep>
  <scstep>
   <time name="diag">    0.02    0.02</time>
   <time name="diis">    0.01    0.01</time>
   <time name="orth">    0.00    0.00</time>
   <time name="total">    0.04    0.04</time>
   <energy>
    <i name="e_fr_energy">     -3.30393012 </i>
    <i name="e_wo_entrp">     -3.30391170 </i>
    <i name="e_0_energy">     -3.30392398 </i>
   </energy>
  </scstep>
  <scstep>
   <time name="diag">    0.02    0.02</time>
   <time name="diis">    0.01    0.01</time>
   <time name="orth">    0.00    0.00</time>
   <time name="total">    0.04    0.04</time>
   <energy>
    <i name="alphaZ">     -0.12882990 </i>
    <i name="ewald">    -62.54122868 </i>
    <i name="hartreedc">     -0.58083746 </i>
    <i name="XCdc">    -26.91937134 </i>
    <i name="pawpsdc">     85.35478846 </i>
    <i name="pawaedc">    -53.38269765 </i>
    <i name="eentropy">     -0.00001843 </i>
    <i name="bandstr">      1.35611028 </i>
    <i name="atom">     53.53815432 </i>
    <i name="e_fr_energy">     -3.30393039 </i>
    <i name="e_wo_entrp">     -3.30391196 </i>
    <i name="e_0_energy">     -3.30392425 </i>
   </energy>
  </scstep>
  <structure>
   <crystal>
    <varray name="basis" >
     <v>       3.01158558       0.31030364      -1.01986680 </v>
     <v>       0.05228425       3.09589799       0.42535412 </v>
     <v>      -0.75308302      -0.01195691       3.06563458 </v>
    </varray>
    <i name="volume">     26.07166505 </i>
    <varray name="rec_basis" >
     <v>       0.36422598      -0.01843424       0.08940139 </v>
     <v>      -0.03601930       0.32465807      -0.00758199 </v>
     <v>       0.12616734      -0.05117868       0.35699054 </v>
    </varray>
   </crystal>
   <varray name="positions" >
    <v>       0.92371990       0.41872333       0.93385728 </v>
   </varray>
  </structure>
  <varray name="forces" >
   <v>       0.00000000      -0.00000000      -0.00000000 </v>
  </varray>
  <varray name="stress" >
   <v>    -109.74703265      -1.25142598       0.61760820 </v>
   <v>      -1.25142598    -112.60689560       0.49004706 </v>
   <v>       0.61760819       0.49004706    -113.17435616 </v>
  </varray>
  <energy>
   <i name="e_fr_energy">     -3.30393039 </i>
   <i name="e_wo_entrp">     -3.30392425 </i>
   <i name="e_0_energy">     -0.00001843 </i>
  </energy>
  <time name="totalsc">    0.20    0.20</time>
 </calculation>
 <calculation>
  <scstep>
   <time name="diag">    0.02    0.02</time>
   <time name="diis">    0.01    0.01</time>
   <time name="orth">    0.00    0.00</time>
   <time name="total">    0.04    0.04</time>
   <energy>
    <i name="alphaZ">     -0.12882990 </i>
    <i name="ewald">    -62.54226747 </i>
    <i name="hartreedc">     -0.58057653 </i>
    <i name="XCdc">    -26.91936827 </i>
    <i name="pawpsdc">     85.36198198 </i>
    <i name="pawaedc">    -53.38985827 </i>
    <i name="eentropy">      0.00011282 </i>
    <i name="bandstr">      1.35654819 </i>
    <i name="atom">     53.53815432 </i>
    <i name="e_fr_energy">     -3.30410311 </i>
    <i name="e_wo_entrp">     -3.30421593 </i>
    <i name="e_0_energy">     -3.30414072 </i>
   </energy>
  </scstep>
  <scstep>
   <time name="diag">    0.02    0.02</time>
   <time name="diis">    0.01    0.01</time>
   <time name="orth">    0.00    0.00</time>
   <time name="total">    0.04    0.04</time>
   <energy>
    <i name="e_fr_energy">     -3.30409306 </i>
    <i name="e_wo_entrp">     -3.30420708 </i>
    <i name="e_0_energy">     -3.30413107 </i>
   </energy>
  </scstep>
  <scstep>
   <time name="diag">    0.02    0.02</time>
   <time name="diis">    0.01    0.01</time>
   <time name="orth">    0.00    0.00</time>
   <time name="total">    0.03    0.03</time>
   <energy>
    <i name="alphaZ">     -0.12882990 </i>
    <i name="ewald">    -62.54226747 </i>
    <i name="hartreedc">     -0.57936030 </i>
    <i name="XCdc">    -26.91944653 </i>
    <i name="pawpsdc">     85.37090129 </i>
    <i name="pawaedc">    -53.39878220 </i>
    <i name="eentropy">      0.00011569 </i>
    <i name="bandstr">      1.35542696 </i>
    <i name="atom">     53.53815432 </i>
    <i name="e_fr_energy">     -3.30408812 </i>
    <i name="e_wo_entrp">     -3.30420382 </i>
    <i name="e_0_energy">     -3.30412669 </i>
   </energy>
  </scstep>
  <structure>
   <crystal>
    <varray name="basis" >
     <v>       3.01819238       0.30609053      -1.01646857 </v>
     <v>       0.04878290       3.09354495       0.42533225 </v>
     <v>      -0.75334910      -0.01033324       3.05995725 </v>
    </varray>
    <i name="volume">     26.07166505 </i>
    <varray name="rec_basis" >
     <v>       0.36324916      -0.01801562       0.08936964 </v>
     <v>      -0.03552211       0.32486548      -0.00764835 </v>
     <v>       0.12560308      -0.05114061       0.35755222 </v>
    </varray>
   </crystal>
   <varray name="positions" >
    <v>       0.92371990       0.41872333       0.93385728 </v>
   </varray>
  </structure>
  <varray name="forces" >
   <v>      -0.00000000       0.00000000       0.00000000 </v>
  </varray>
  <varray name="stress" >
   <v>    -110.63269817      -0.95503994      -0.13681054 </v>
   <v>      -0.95503996    -112.47834054       1.03053415 </v>
   <v>      -0.13681054       1.03053418    -112.46872420 </v>
  </varray>
  <energy>
   <i name="e_fr_energy">     -3.30408812 </i>
   <i name="e_wo_entrp">     -3.30412669 </i>
   <i name="e_0_energy">      0.00011569 </i>
  </energy>
  <time name="totalsc">    0.16    0.16</time>
 </calculation>
 <calculation>
  <scstep>
   <time name="diag">    0.02    0.02</time>
   <time name="diis">    0.01    0.01</time>
   <time name="orth">    0.00    0.00</time>
   <time name="total">    0.04    0.04</time>
   <energy>
    <i name="alphaZ">     -0.12882990 </i>
    <i name="ewald">    -62.54351104 </i>
    <i name="hartreedc">     -0.57906070 </i>
    <i name="XCdc">    -26.91945156 </i>
    <i name="pawpsdc">     85.37257950 </i>
    <i name="pawaedc">    -53.40046682 </i>
    <i name="eentropy">     -0.00000473 </i>
    <i name="bandstr">      1.35635119 </i>
    <i name="atom">     53.53815432 </i>
    <i name="e_fr_energy">     -3.30423971 </i>
    <i name="e_wo_entrp">     -3.30423499 </i>
    <i name="e_0_energy">     -3.30423814 </i>
   </energy>
  </scstep>
  <scstep>
   <time name="diag">    0.02    0.02</time>
   <time name="diis">    0.01    0.01</time>
   <time name="orth">    0.00    0.00</time>
   <time name="total">    0.04    0.04</time>
   <energy>
    <i name="e_fr_energy">     -3.30421628 </i>
    <i name="e_wo_entrp">     -3.30421614 </i>
    <i name="e_0_energy">     -3.30421623 </i>
   </energy>
  </scstep>
  <scstep>
   <time name="diag">    0.02    0.02</time>
   <time name="diis">    0.01    0.01</time>
   <time name="orth">    0.00    0.00</time>
   <time name="total">    0.04    0.04</time>
   <energy>
    <i name="e_fr_energy">     -3.30420471 </i>
    <i name="e_wo_entrp">     -3.30421054 </i>
    <i name="e_0_energy">     -3.30420666 </i>
   </energy>
  </scstep>
  <scstep>
   <time name="diag">    0.02    0.02</time>
   <time name="diis">    0.01    0.01</time>
   <time name="orth">    0.00    0.00</time>
   <time name="total">    0.03    0.03</time>
   <energy>
    <i name="alphaZ">     -0.12882990 </i>
    <i name="ewald">    -62.54351104 </i>
    <i name="hartreedc">     -0.57731881 </i>
    <i name="XCdc">    -26.91956626 </i>
    <i name="pawpsdc">     85.38595850 </i>
    <i name="pawaedc">    -53.41385717 </i>
    <i name="eentropy">      0.00000534 </i>
    <i name="bandstr">      1.35476012 </i>
    <i name="atom">     53.53815432 </i>
    <i name="e_fr_energy">     -3.30420490 </i>
    <i name="e_wo_entrp">     -3.30421024 </i>
    <i name="e_0_energy">     -3.30420668 </i>
   </energy>
  </scstep>
  <structure>
   <crystal>
    <varray name="basis" >
     <v>       3.02820978       0.29972159      -1.01133806 </v>
     <v>       0.04348816       3.09001287       0.42530282 </v>
     <v>      -0.75375794      -0.00787784       3.05139748 </v>
    </varray>
    <i name="volume">     26.07166505 </i>
    <varray name="rec_basis" >
     <v>       0.36178004      -0.01738573       0.08932223 </v>
     <v>      -0.03477348       0.32517937      -0.00775024 </v>
     <v>       0.12475306      -0.05108563       0.35840338 </v>
    </varray>
   </crystal>
   <varray name="positions" >
    <v>       0.92371990       0.41872333       0.93385728 </v>
   </varray>
  </structure>
  <varray name="forces" >
   <v>      -0.00000000      -0.00000000       0.00000000 </v>
  </varray>
  <varray name="stress" >
   <v>    -111.46801388      -0.73044918      -0.71748229 </v>
   <v>      -0.73044917    -112.88321367       1.89215005 </v>
   <v>      -0.71748234       1.89215004    -111.28214719 </v>
  </varray>
  <energy>
   <i name="e_fr_energy">     -3.30420490 </i>
   <i name="e_wo_entrp">     -3.30420668 </i>
   <i name="e_0_energy">      0.00000534 </i>
  </energy>
  <time name="totalsc">    0.20    0.20</time>
 </calculation>
 <calculation>
  <scstep>
   <time name="diag">    0.02    0.02</time>
   <time name="diis">    0.01    0.01</time>
   <time name="orth">    0.00    0.00</time>
   <time name="total">    0.04    0.04</time>
   <energy>
    <i name="alphaZ">     -0.12882990 </i>
    <i name="ewald">    -62.54787241 </i>
    <i name="hartreedc">     -0.57681724 </i>
    <i name="XCdc">    -26.91957462 </i>
    <i name="pawpsdc">     85.38765290 </i>
    <i name="pawaedc">    -53.41555234 </i>
    <i name="eentropy">     -0.00001481 </i>
    <i name="bandstr">      1.35844070 </i>
    <i name="atom">     53.53815432 </i>
    <i name="e_fr_energy">     -3.30441341 </i>
    <i name="e_wo_entrp">     -3.30439860 </i>
    <i name="e_0_energy">     -3.30440847 </i>
   </energy>
  </scstep>
  <scstep>
   <time name="diag">    0.02    0.02</time>
   <time name="diis">    0.01    0.01</time>
   <time name="orth">    0.00    0.00</time>
   <time name="total">    0.04    0.04</time>
   <energy>
    <i name="e_fr_energy">     -3.30439782 </i>
    <i name="e_wo_entrp">     -3.30438704 </i>
    <i name="e_0_energy">     -3.30439423 </i>
   </energy>
  </scstep>
  <scstep>
   <time name="diag">    0.02    0.02</time>
   <time name="diis">    0.01    0.01</time>
   <time name="orth">    0.00    0.00</time>
   <time name="total">    0.04    0.04</time>
   <energy>
    <i name="alphaZ">     -0.12882990 </i>
    <i name="ewald">    -62.54787241 </i>
    <i name="hartreedc">     -0.57403018 </i>
    <i name="XCdc">    -26.91985237 </i>
    <i name="pawpsdc">     85.36101323 </i>
    <i name="pawaedc">    -53.38884889 </i>
    <i name="eentropy">     -0.00000573 </i>
    <i name="bandstr">      1.35588094 </i>
    <i name="atom">     53.53815432 </i>
    <i name="e_fr_energy">     -3.30439098 </i>
    <i name="e_wo_entrp">     -3.30438525 </i>
    <i name="e_0_energy">     -3.30438907 </i>
   </energy>
  </scstep>
  <structure>
   <crystal>
    <varray name="basis" >
     <v>       3.03328745       0.29360311      -1.01146786 </v>
     <v>       0.03939249       3.08673195       0.43059744 </v>
     <v>      -0.75608822      -0.00147806       3.05044508 </v>
    </varray>
    <i name="volume">     26.07166505 </i>
    <varray name="rec_basis" >
     <v>       0.36117919      -0.01709650       0.08951417 </v>
     <v>      -0.03429490       0.32556869      -0.00834264 </v>
     <v>       0.12460098      -0.05162578       0.35867980 </v>
    </varray>
   </crystal>
   <varray name="positions" >
    <v>       0.92371990       0.41872333       0.93385728 </v>
   </varray>
  </structure>
  <varray name="forces" >
   <v>       0.00000000       0.00000000       0.00000000 </v>
  </varray>
  <varray name="stress" >
   <v>    -111.26379743      -0.90039644      -0.43463566 </v>
   <v>      -0.90039645    -113.30321403       1.77922935 </v>
   <v>      -0.43463570       1.77922933    -111.59088688 </v>
  </varray>
  <energy>
   <i name="e_fr_energy">     -3.30439098 </i>
   <i name="e_wo_entrp">     -3.30438907 </i>
   <i name="e_0_energy">     -0.00000573 </i>
  </energy>
  <time name="totalsc">    0.16    0.16</time>
 </calculation>
 <calculation>
  <scstep>
   <time name="diag">    0.02    0.02</time>
   <time name="diis">    0.01    0.01</time>
   <time name="orth">    0.00    0.00</time>
   <time name="total">    0.04    0.04</time>
   <energy>
    <i name="alphaZ">     -0.12882990 </i>
    <i name="ewald">    -62.56108132 </i>
    <i name="hartreedc">     -0.57242056 </i>
    <i name="XCdc">    -26.91991152 </i>
    <i name="pawpsdc">     85.35826314 </i>
    <i name="pawaedc">    -53.38611187 </i>
    <i name="eentropy">      0.00037588 </i>
    <i name="bandstr">      1.36643400 </i>
    <i name="atom">     53.53815432 </i>
    <i name="e_fr_energy">     -3.30512783 </i>
    <i name="e_wo_entrp">     -3.30550371 </i>
    <i name="e_0_energy">     -3.30525312 </i>
   </energy>
  </scstep>
  <scstep>
   <time name="diag">    0.02    0.02</time>
   <time name="diis">    0.01    0.01</time>
   <time name="orth">    0.00    0.00</time>
   <time name="total">    0.04    0.04</time>
   <energy>
    <i name="e_fr_energy">     -3.30500435 </i>
    <i name="e_wo_entrp">     -3.30540122 </i>
    <i name="e_0_energy">     -3.30513664 </i>
   </energy>
  </scstep>
  <scstep>
   <time name="diag">    0.02    0.02</time>
   <time name="diis">    0.01    0.01</time>
   <time name="orth">    0.00    0.00</time>
   <time name="total">    0.04    0.04</time>
   <energy>
    <i name="e_fr_energy">     -3.30494890 </i>
    <i name="e_wo_entrp">     -3.30537074 </i>
    <i name="e_0_energy">     -3.30508951 </i>
   </energy>
  </scstep>
  <scstep>
   <time name="diag">    0.02    0.02</time>
   <time name="diis">    0.01    0.01</time>
   <time name="orth">    0.00    0.00</time>
   <time name="total">    0.03    0.03</time>
   <energy>
    <i name="alphaZ">     -0.12882990 </i>
    <i name="ewald">    -62.56108132 </i>
    <i name="hartreedc">     -0.56426933 </i>
    <i name="XCdc">    -26.92074420 </i>
    <i name="pawpsdc">     85.26239305 </i>
    <i name="pawaedc">    -53.29005764 </i>
    <i name="eentropy">      0.00042141 </i>
    <i name="bandstr">      1.35906425 </i>
    <i name="atom">     53.53815432 </i>
    <i name="e_fr_energy">     -3.30494936 </i>
    <i name="e_wo_entrp">     -3.30537077 </i>
    <i name="e_0_energy">     -3.30508983 </i>
   </energy>
  </scstep>
  <structure>
   <crystal>
    <varray name="basis" >
     <v>       3.04860963       0.27525554      -1.01188682 </v>
     <v>       0.02710616       3.07697894       0.44649450 </v>
     <v>      -0.76310140       0.01772196       3.04767686 </v>
    </varray>
    <i name="volume">     26.07166505 </i>
    <varray name="rec_basis" >
     <v>       0.35938344      -0.01623722       0.09007968 </v>
     <v>      -0.03286413       0.32675338      -0.01012882 </v>
     <v>       0.12413686      -0.05326149       0.35951085 </v>
    </varray>
   </crystal>
   <varray name="positions" >
    <v>       0.92371990       0.41872333       0.93385728 </v>
   </varray>
  </structure>
  <varray name="forces" >
   <v>       0.00000000      -0.00000000       0.00000000 </v>
  </varray>
  <varray name="stress" >
   <v>    -110.72459110      -0.96286935       1.27073119 </v>
   <v>      -0.96286928    -114.51149670       0.41169855 </v>
   <v>       1.27073120       0.41169854    -112.80478903 </v>
  </varray>
  <energy>
   <i name="e_fr_energy">     -3.30494936 </i>
   <i name="e_wo_entrp">     -3.30508983 </i>
   <i name="e_0_energy">      0.00042141 </i>
  </energy>
  <time name="totalsc">    0.20    0.20</time>
 </calculation>
 <calculation>
  <scstep>
   <time name="diag">    0.02    0.02</time>
   <time name="diis">    0.01    0.01</time>
   <time name="orth">    0.00    0.00</time>
   <time name="total">    0.04    0.04</time>
   <energy>
    <i name="alphaZ">     -0.12882990 </i>
    <i name="ewald">    -62.58791105 </i>
    <i name="hartreedc">     -0.56111674 </i>
    <i name="XCdc">    -26.92091936 </i>
    <i name="pawpsdc">     85.25722851 </i>
    <i name="pawaedc">    -53.28491363 </i>
    <i name="eentropy">      0.00161122 </i>
    <i name="bandstr">      1.38283448 </i>
    <i name="atom">     53.53815432 </i>
    <i name="e_fr_energy">     -3.30386214 </i>
    <i name="e_wo_entrp">     -3.30547336 </i>
    <i name="e_0_energy">     -3.30439921 </i>
   </energy>
  </scstep>
  <scstep>
   <time name="diag">    0.02    0.02</time>
   <time name="diis">    0.01    0.01</time>
   <time name="orth">    0.00    0.00</time>
   <time name="total">    0.04    0.04</time>
   <energy>
    <i name="e_fr_energy">     -3.30353116 </i>
    <i name="e_wo_entrp">     -3.30521765 </i>
    <i name="e_0_energy">     -3.30409332 </i>
   </energy>
  </scstep>
  <scstep>
   <time name="diag">    0.02    0.02</time>
   <time name="diis">    0.01    0.01</time>
   <time name="orth">    0.00    0.00</time>
   <time name="total">    0.04    0.04</time>
   <energy>
    <i name="e_fr_energy">     -3.30338040 </i>
    <i name="e_wo_entrp">     -3.30514902 </i>
    <i name="e_0_energy">     -3.30396994 </i>
   </energy>
  </scstep>
  <scstep>
   <time name="diag">    0.02    0.02</time>
   <time name="diis">    0.01    0.01</time>
   <time name="orth">    0.00    0.00</time>
   <time name="total">    0.04    0.04</time>
   <energy>
    <i name="alphaZ">     -0.12882990 </i>
    <i name="ewald">    -62.58791105 </i>
    <i name="hartreedc">     -0.54893246 </i>
    <i name="XCdc">    -26.92219178 </i>
    <i name="pawpsdc">     85.08220452 </i>
    <i name="pawaedc">    -53.10963229 </i>
    <i name="eentropy">      0.00176810 </i>
    <i name="bandstr">      1.37198860 </i>
    <i name="atom">     53.53815432 </i>
    <i name="e_fr_energy">     -3.30338193 </i>
    <i name="e_wo_entrp">     -3.30515003 </i>
    <i name="e_0_energy">     -3.30397129 </i>
   </energy>
  </scstep>
  <structure>
   <crystal>
    <varray name="basis" >
     <v>       3.07966331       0.23858782      -1.01285836 </v>
     <v>       0.00253113       3.05787388       0.47835515 </v>
     <v>      -0.77723174       0.05613361       3.04254088 </v>
    </varray>
    <i name="volume">     26.07166505 </i>
    <varray name="rec_basis" >
     <v>       0.35582133      -0.01455580       0.09116482 </v>
     <v>      -0.03002373       0.32919938      -0.01374330 </v>
     <v>       0.12317291      -0.05660308       0.36118208 </v>
    </varray>
   </crystal>
   <varray name="positions" >
    <v>       0.92371990       0.41872333       0.93385728 </v>
   </varray>
  </structure>
  <varray name="forces" >
   <v>       0.00000000      -0.00000000       0.00000000 </v>
  </varray>
  <varray name="stress" >
   <v>    -117.68943167       4.31784905       4.11239326 </v>
   <v>       4.31784907    -111.51299786      -7.60024829 </v>
   <v>       4.11239324      -7.60024829    -111.08702355 </v>
  </varray>
  <energy>
   <i name="e_fr_energy">     -3.30338193 </i>
   <i name="e_wo_entrp">     -3.30397129 </i>
   <i name="e_0_energy">      0.00176810 </i>
  </energy>
  <time name="totalsc">    0.27    0.27</time>
 </calculation>
 <calculation>
  <scstep>
   <time name="diag">    0.02    0.02</time>
   <time name="diis">    0.01    0.01</time>
   <time name="orth">    0.00    0.00</time>
   <time name="total">    0.04    0.04</time>
   <energy>
    <i name="alphaZ">     -0.12882990 </i>
    <i name="ewald">    -62.56495306 </i>
    <i name="hartreedc">     -0.55105864 </i>
    <i name="XCdc">    -26.92225812 </i>
    <i name="pawpsdc">     85.08290487 </i>
    <i name="pawaedc">    -53.11036388 </i>
    <i name="eentropy">      0.00070867 </i>
    <i name="bandstr">      1.35030496 </i>
    <i name="atom">     53.53815432 </i>
    <i name="e_fr_energy">     -3.30539078 </i>
    <i name="e_wo_entrp">     -3.30609945 </i>
    <i name="e_0_energy">     -3.30562700 </i>
   </energy>
  </scstep>
  <scstep>
   <time name="diag">    0.02    0.02</time>
   <time name="diis">    0.01    0.01</time>
   <time name="orth">    0.00    0.00</time>
   <time name="total">    0.04    0.04</time>
   <energy>
    <i name="e_fr_energy">     -3.30515604 </i>
    <i name="e_wo_entrp">     -3.30583204 </i>
    <i name="e_0_energy">     -3.30538138 </i>
   </energy>
  </scstep>
  <scstep>
   <time name="diag">    0.02    0.02</time>
   <time name="diis">    0.01    0.01</time>
   <time name="orth">    0.00    0.00</time>
   <time name="total">    0.04    0.04</time>
   <energy>
    <i name="e_fr_energy">     -3.30504997 </i>
    <i name="e_wo_entrp">     -3.30567939 </i>
    <i name="e_0_energy">     -3.30525978 </i>
   </energy>
  </scstep>
  <scstep>
   <time name="diag">    0.02    0.02</time>
   <time name="diis">    0.01    0.01</time>
   <time name="orth">    0.00    0.00</time>
   <time name="total">    0.04    0.04</time>
   <energy>
    <i name="alphaZ">     -0.12882990 </i>
    <i name="ewald">    -62.56495306 </i>
    <i name="hartreedc">     -0.56146032 </i>
    <i name="XCdc">    -26.92104732 </i>
    <i name="pawpsdc">     85.21231717 </i>
    <i name="pawaedc">    -53.23997675 </i>
    <i name="eentropy">      0.00063038 </i>
    <i name="bandstr">      1.36011461 </i>
    <i name="atom">     53.53815432 </i>
    <i name="e_fr_energy">     -3.30505086 </i>
    <i name="e_wo_entrp">     -3.30568125 </i>
    <i name="e_0_energy">     -3.30526099 </i>
   </energy>
  </scstep>
  <structure>
   <crystal>
    <varray name="basis" >
     <v>       3.05309016       0.26992264      -1.01201698 </v>
     <v>       0.02353372       3.07416826       0.45112076 </v>
     <v>      -0.76514699       0.02330515       3.04689700 </v>
    </varray>
    <i name="volume">     26.07166505 </i>
    <varray name="rec_basis" >
     <v>       0.35886318      -0.01598972       0.09024123 </v>
     <v>      -0.03244947       0.32710260      -0.01065077 </v>
     <v>       0.12399968      -0.05374144       0.35975303 </v>
    </varray>
   </crystal>
   <varray name="positions" >
    <v>       0.92371990       0.41872333       0.93385728 </v>
   </varray>
  </structure>
  <varray name="forces" >
   <v>      -0.00000000      -0.00000000       0.00000000 </v>
  </varray>
  <varray name="stress" >
   <v>    -110.81732219      -0.71082847       1.89249636 </v>
   <v>      -0.71082845    -114.75433349      -0.35181258 </v>
   <v>       1.89249639      -0.35181254    -113.02220510 </v>
  </varray>
  <energy>
   <i name="e_fr_energy">     -3.30505086 </i>
   <i name="e_wo_entrp">     -3.30526099 </i>
   <i name="e_0_energy">      0.00063038 </i>
  </energy>
  <time name="totalsc">    0.20    0.21</time>
  <eigenvalues>
   <array>
    <dimension dim="1">band</dimension>
    <dimension dim="2">kpoint</dimension>
    <dimension dim="3">spin</dimension>
    <field>eigene</field>
    <field>occ</field>
    <set>
     <set comment="spin 1">
      <set comment="kpoint 1">
       <r>   -4.4641    1.0000 </r>
       <r>   10.2881    0.0000 </r>
       <r>   11.1188    0.0000 </r>
       <r>   12.5555    0.0000 </r>
       <r>   14.0528    0.0000 </r>
      </set>
      <set comment="kpoint 2">
       <r>   -3.6614    1.0000 </r>
       <r>    7.8777   -0.0000 </r>
       <r>   10.3583    0.0000 </r>
       <r>   11.0796    0.0000 </r>
       <r>   12.1886    0.0000 </r>
      </set>
      <set comment="kpoint 3">
       <r>   -1.2958    1.0000 </r>
       <r>    2.7087    1.0000 </r>
       <r>    9.7446    0.0000 </r>
       <r>   10.9327    0.0000 </r>
       <r>   12.0311    0.0000 </r>
      </set>
      <set comment="kpoint 4">
       <r>   -3.8528    1.0000 </r>
       <r>    5.6114   -0.0000 </r>
       <r>   12.8972    0.0000 </r>
       <r>   13.6292    0.0000 </r>
       <r>   14.6133    0.0000 </r>
      </set>
      <set comment="kpoint 5">
       <r>   -3.2498    1.0000 </r>
       <r>    6.9516   -0.0000 </r>
       <r>    9.4727    0.0000 </r>
       <r>   11.0348    0.0000 </r>
       <r>   14.3157    0.0000 </r>
      </set>
      <set comment="kpoint 6">
       <r>   -1.0764    1.0000 </r>
       <r>    3.8223    0.1761 </r>
       <r>    9.1651   -0.0000 </r>
       <r>    9.9760    0.0000 </r>
       <r>   11.2262    0.0000 </r>
      </set>
      <set comment="kpoint 7">
       <r>   -0.3160    1.0000 </r>
       <r>    2.7086    1.0000 </r>
       <r>    7.1343   -0.0000 </r>
       <r>   10.0310    0.0000 </r>
       <r>   12.0643    0.0000 </r>
      </set>
      <set comment="kpoint 8">
       <r>   -2.8557    1.0000 </r>
       <r>    5.5397   -0.0000 </r>
       <r>    7.9223   -0.0000 </r>
       <r>   11.4397    0.0000 </r>
       <r>   13.2484    0.0000 </r>
      </set>
      <set comment="kpoint 9">
       <r>   -2.1435    1.0000 </r>
       <r>    1.5756    1.0000 </r>
       <r>   13.8897    0.0000 </r>
       <r>   14.1985    0.0000 </r>
       <r>   15.4552    0.0000 </r>
      </set>
      <set comment="kpoint 10">
       <r>   -1.6901    1.0000 </r>
       <r>    2.8598    1.0000 </r>
       <r>   10.3608    0.0000 </r>
       <r>   11.9126    0.0000 </r>
       <r>   13.0334    0.0000 </r>
      </set>
      <set comment="kpoint 11">
       <r>    0.3084    1.0000 </r>
       <r>    5.2574   -0.0000 </r>
       <r>    5.5206   -0.0000 </r>
       <r>    8.0749   -0.0000 </r>
       <r>   10.7362    0.0000 </r>
      </set>
      <set comment="kpoint 12">
       <r>    1.5330    1.0000 </r>
       <r>    3.2987    1.0040 </r>
       <r>    4.3042   -0.0002 </r>
       <r>   10.2255    0.0000 </r>
       <r>   10.9136    0.0000 </r>
      </set>
      <set comment="kpoint 13">
       <r>   -1.0424    1.0000 </r>
       <r>    1.8363    1.0000 </r>
       <r>    8.8056   -0.0000 </r>
       <r>   12.1710    0.0000 </r>
       <r>   14.2952    0.0000 </r>
      </set>
      <set comment="kpoint 14">
       <r>   -3.5989    1.0000 </r>
       <r>    8.6001   -0.0000 </r>
       <r>   10.1327    0.0000 </r>
       <r>   10.3555    0.0000 </r>
       <r>   11.8502    0.0000 </r>
      </set>
      <set comment="kpoint 15">
       <r>   -1.9007    1.0000 </r>
       <r>    5.1803   -0.0000 </r>
       <r>    6.5052   -0.0000 </r>
       <r>   10.9502    0.0000 </r>
       <r>   14.7170    0.0000 </r>
      </set>
      <set comment="kpoint 16">
       <r>    0.5888    1.0000 </r>
       <r>    1.6197    1.0000 </r>
       <r>    5.1753   -0.0000 </r>
       <r>   12.6711    0.0000 </r>
       <r>   14.3572    0.0000 </r>
      </set>
      <set comment="kpoint 17">
       <r>   -2.2316    1.0000 </r>
       <r>    5.4261   -0.0000 </r>
       <r>    6.1703   -0.0000 </r>
       <r>   11.9981    0.0000 </r>
       <r>   17.0982    0.0000 </r>
      </set>
      <set comment="kpoint 18">
       <r>   -3.7104    1.0000 </r>
       <r>    7.2670   -0.0000 </r>
       <r>   10.7506    0.0000 </r>
       <r>   11.8117    0.0000 </r>
       <r>   12.0793    0.0000 </r>
      </set>
      <set comment="kpoint 19">
       <r>   -3.2722    1.0000 </r>
       <r>    7.3206   -0.0000 </r>
       <r>   10.5063    0.0000 </r>
       <r>   10.9744    0.0000 </r>
       <r>   13.2653    0.0000 </r>
      </set>
      <set comment="kpoint 20">
       <r>   -1.7717    1.0000 </r>
       <r>    6.2146   -0.0000 </r>
       <r>    7.7084   -0.0000 </r>
       <r>    9.9807    0.0000 </r>
       <r>   12.4147    0.0000 </r>
      </set>
      <set comment="kpoint 21">
       <r>    1.0590    1.0000 </r>
       <r>    1.9746    1.0000 </r>
       <r>    6.3237   -0.0000 </r>
       <r>    9.3976    0.0000 </r>
       <r>   12.5636    0.0000 </r>
      </set>
      <set comment="kpoint 22">
       <r>   -1.5122    1.0000 </r>
       <r>    5.6651   -0.0000 </r>
       <r>    6.4608   -0.0000 </r>
       <r>    7.7255   -0.0000 </r>
       <r>   13.4528    0.0000 </r>
      </set>
      <set comment="kpoint 23">
       <r>   -3.1843    1.0000 </r>
       <r>    6.4727   -0.0000 </r>
       <r>    8.4573   -0.0000 </r>
       <r>   11.5811    0.0000 </r>
       <r>   14.7211    0.0000 </r>
      </set>
      <set comment="kpoint 24">
       <r>   -1.7830    1.0000 </r>
       <r>    3.1534    1.0001 </r>
       <r>   10.6149    0.0000 </r>
       <r>   12.1911    0.0000 </r>
       <r>   13.7689    0.0000 </r>
      </set>
      <set comment="kpoint 25">
       <r>   -0.4642    1.0000 </r>
       <r>    5.1914   -0.0000 </r>
       <r>    8.0851   -0.0000 </r>
       <r>    8.4768   -0.0000 </r>
       <r>   10.1363    0.0000 </r>
      </set>
      <set comment="kpoint 26">
       <r>    2.3216    1.0000 </r>
       <r>    3.5701    0.9996 </r>
       <r>    5.7118   -0.0000 </r>
       <r>    7.6705   -0.0000 </r>
       <r>    9.4118    0.0000 </r>
      </set>
      <set comment="kpoint 27">
       <r>    0.2633    1.0000 </r>
       <r>    3.3349    1.0076 </r>
       <r>    6.8408   -0.0000 </r>
       <r>    8.1469   -0.0000 </r>
       <r>   10.6713    0.0000 </r>
      </set>
      <set comment="kpoint 28">
       <r>   -1.5351    1.0000 </r>
       <r>    2.5020    1.0000 </r>
       <r>    9.8647    0.0000 </r>
       <r>   12.0291    0.0000 </r>
       <r>   12.8553    0.0000 </r>
      </set>
      <set comment="kpoint 29">
       <r>   -0.8755    1.0000 </r>
       <r>    1.7107    1.0000 </r>
       <r>    9.0527   -0.0000 </r>
       <r>   11.5202    0.0000 </r>
       <r>   13.6337    0.0000 </r>
      </set>
      <set comment="kpoint 30">
       <r>    0.9674    1.0000 </r>
       <r>    2.9300    1.0000 </r>
       <r>    6.4721   -0.0000 </r>
       <r>    7.2108   -0.0000 </r>
       <r>   12.6254    0.0000 </r>
      </set>
      <set comment="kpoint 31">
       <r>    2.4829    1.0000 </r>
       <r>    4.1158   -0.0113 </r>
       <r>    5.4152   -0.0000 </r>
       <r>    6.4096   -0.0000 </r>
       <r>    8.3259   -0.0000 </r>
      </set>
      <set comment="kpoint 32">
       <r>   -0.1158    1.0000 </r>
       <r>    3.9072   -0.0008 </r>
       <r>    6.8619   -0.0000 </r>
       <r>    8.4751   -0.0000 </r>
       <r>   11.0893    0.0000 </r>
      </set>
      <set comment="kpoint 33">
       <r>   -1.2567    1.0000 </r>
       <r>    2.0639    1.0000 </r>
       <r>    8.9678   -0.0000 </r>
       <r>   12.3929    0.0000 </r>
       <r>   14.1611    0.0000 </r>
      </set>
      <set comment="kpoint 34">
       <r>   -2.7107    1.0000 </r>
       <r>    5.2970   -0.0000 </r>
       <r>    8.4226   -0.0000 </r>
       <r>   10.4448    0.0000 </r>
       <r>   12.3938    0.0000 </r>
      </set>
      <set comment="kpoint 35">
       <r>   -0.8305    1.0000 </r>
       <r>    4.9868   -0.0000 </r>
       <r>    6.2670   -0.0000 </r>
       <r>    6.5682   -0.0000 </r>
       <r>   16.0179    0.0000 </r>
      </set>
      <set comment="kpoint 36">
       <r>    1.0046    1.0000 </r>
       <r>    2.7013    1.0000 </r>
       <r>    5.0409   -0.0000 </r>
       <r>    8.6130   -0.0000 </r>
       <r>   12.2832    0.0000 </r>
      </set>
      <set comment="kpoint 37">
       <r>   -1.7381    1.0000 </r>
       <r>    5.4790   -0.0000 </r>
       <r>    7.2146   -0.0000 </r>
       <r>    8.6241   -0.0000 </r>
       <r>   12.8177    0.0000 </r>
      </set>
      <set comment="kpoint 38">
       <r>   -3.0170    1.0000 </r>
       <r>    5.8822   -0.0000 </r>
       <r>    7.7690   -0.0000 </r>
       <r>   11.9935    0.0000 </r>
       <r>   14.0963    0.0000 </r>
      </set>
      <set comment="kpoint 39">
       <r>   -1.0387    1.0000 </r>
       <r>    3.1851    1.0003 </r>
       <r>    8.7494   -0.0000 </r>
       <r>   10.0909    0.0000 </r>
       <r>   11.4987    0.0000 </r>
      </set>
      <set comment="kpoint 40">
       <r>    1.0687    1.0000 </r>
       <r>    1.7304    1.0000 </r>
       <r>    4.5399   -0.0000 </r>
       <r>   12.3825    0.0000 </r>
       <r>   13.5532    0.0000 </r>
      </set>
      <set comment="kpoint 41">
       <r>    0.2944    1.0000 </r>
       <r>    1.4639    1.0000 </r>
       <r>    5.6542   -0.0000 </r>
       <r>   13.0697    0.0000 </r>
       <r>   15.1944    0.0000 </r>
      </set>
      <set comment="kpoint 42">
       <r>   -1.5036    1.0000 </r>
       <r>    2.3631    1.0000 </r>
       <r>   10.5397    0.0000 </r>
       <r>   11.5437    0.0000 </r>
       <r>   15.9121    0.0000 </r>
      </set>
      <set comment="kpoint 43">
       <r>   -2.0472    1.0000 </r>
       <r>    5.0054   -0.0000 </r>
       <r>    6.6374   -0.0000 </r>
       <r>   11.3136    0.0000 </r>
       <r>   14.6629    0.0000 </r>
      </set>
      <set comment="kpoint 44">
       <r>   -0.9918    1.0000 </r>
       <r>    4.5176   -0.0000 </r>
       <r>    9.1081   -0.0000 </r>
       <r>    9.3925    0.0000 </r>
       <r>   11.1754    0.0000 </r>
      </set>
      <set comment="kpoint 45">
       <r>    1.3123    1.0000 </r>
       <r>    2.5366    1.0000 </r>
       <r>    5.2751   -0.0000 </r>
       <r>    8.6956   -0.0000 </r>
       <r>   13.3410    0.0000 </r>
      </set>
      <set comment="kpoint 46">
       <r>    1.0584    1.0000 </r>
       <r>    2.3226    1.0000 </r>
       <r>    5.2999   -0.0000 </r>
       <r>    8.8971   -0.0000 </r>
       <r>   11.1939    0.0000 </r>
      </set>
      <set comment="kpoint 47">
       <r>   -1.0561    1.0000 </r>
       <r>    3.1614    1.0002 </r>
       <r>    8.8074   -0.0000 </r>
       <r>   10.4703    0.0000 </r>
       <r>   11.6354    0.0000 </r>
      </set>
      <set comment="kpoint 48">
       <r>   -1.8042    1.0000 </r>
       <r>    5.6141   -0.0000 </r>
       <r>    7.8693   -0.0000 </r>
       <r>    9.6067    0.0000 </r>
       <r>   12.5517    0.0000 </r>
      </set>
      <set comment="kpoint 49">
       <r>    0.2337    1.0000 </r>
       <r>    5.6814   -0.0000 </r>
       <r>    5.9886   -0.0000 </r>
       <r>    8.5672   -0.0000 </r>
       <r>   10.6230    0.0000 </r>
      </set>
      <set comment="kpoint 50">
       <r>    2.3683    1.0000 </r>
       <r>    4.1020   -0.0137 </r>
       <r>    5.6605   -0.0000 </r>
       <r>    7.0303   -0.0000 </r>
       <r>   10.8406    0.0000 </r>
      </set>
      <set comment="kpoint 51">
       <r>    2.8995    1.0000 </r>
       <r>    3.8581    0.0800 </r>
       <r>    5.0311   -0.0000 </r>
       <r>    6.4205   -0.0000 </r>
       <r>    7.6413   -0.0000 </r>
      </set>
      <set comment="kpoint 52">
       <r>    0.5310    1.0000 </r>
       <r>    4.4399   -0.0000 </r>
       <r>    5.1548   -0.0000 </r>
       <r>    8.0917   -0.0000 </r>
       <r>   11.0251    0.0000 </r>
      </set>
      <set comment="kpoint 53">
       <r>   -0.3924    1.0000 </r>
       <r>    4.7425   -0.0000 </r>
[...]
       <set comment="band 1">
        <r>  0.2162  0.0175  0.0000 </r>
       </set>
       <set comment="band 2">
        <r>  0.0146  0.1814  0.0000 </r>
       </set>
       <set comment="band 3">
        <r>  0.0902  0.1533  0.0000 </r>
       </set>
       <set comment="band 4">
        <r>  0.0145  0.2494  0.0000 </r>
       </set>
       <set comment="band 5">
        <r>  0.0325  0.0968  0.0000 </r>
       </set>
      </set>
      <set comment="kpoint 24">
       <set comment="band 1">
        <r>  0.2147  0.0322  0.0000 </r>
       </set>
       <set comment="band 2">
        <r>  0.0526  0.1364  0.0000 </r>
       </set>
       <set comment="band 3">
        <r>  0.0707  0.2194  0.0000 </r>
       </set>
       <set comment="band 4">
        <r>  0.0049  0.3465  0.0000 </r>
       </set>
       <set comment="band 5">
        <r>  0.0130  0.1234  0.0000 </r>
       </set>
      </set>
      <set comment="kpoint 25">
       <set comment="band 1">
        <r>  0.1851  0.0589  0.0000 </r>
       </set>
       <set comment="band 2">
        <r>  0.0374  0.1783  0.0000 </r>
       </set>
       <set comment="band 3">
        <r>  0.1551  0.1971  0.0000 </r>
       </set>
       <set comment="band 4">
        <r>  0.0554  0.1877  0.0000 </r>
       </set>
       <set comment="band 5">
        <r>  0.0137  0.0751  0.0000 </r>
       </set>
      </set>
      <set comment="kpoint 26">
       <set comment="band 1">
        <r>  0.1687  0.0932  0.0000 </r>
       </set>
       <set comment="band 2">
        <r>  0.1128  0.1436  0.0000 </r>
       </set>
       <set comment="band 3">
        <r>  0.0565  0.1629  0.0000 </r>
       </set>
       <set comment="band 4">
        <r>  0.1053  0.1932  0.0000 </r>
       </set>
       <set comment="band 5">
        <r>  0.0265  0.0756  0.0000 </r>
       </set>
      </set>
      <set comment="kpoint 27">
       <set comment="band 1">
        <r>  0.2157  0.0556  0.0000 </r>
       </set>
       <set comment="band 2">
        <r>  0.0256  0.1515  0.0000 </r>
       </set>
       <set comment="band 3">
        <r>  0.0796  0.1434  0.0000 </r>
       </set>
       <set comment="band 4">
        <r>  0.1189  0.1974  0.0000 </r>
       </set>
       <set comment="band 5">
        <r>  0.0034  0.0629  0.0000 </r>
       </set>
      </set>
      <set comment="kpoint 28">
       <set comment="band 1">
        <r>  0.2252  0.0300  0.0000 </r>
       </set>
       <set comment="band 2">
        <r>  0.0471  0.1328  0.0000 </r>
       </set>
       <set comment="band 3">
        <r>  0.0772  0.2188  0.0000 </r>
       </set>
       <set comment="band 4">
        <r>  0.0055  0.2331  0.0000 </r>
       </set>
       <set comment="band 5">
        <r>  0.0112  0.1216  0.0000 </r>
       </set>
      </set>
      <set comment="kpoint 29">
       <set comment="band 1">
        <r>  0.2509  0.0270  0.0000 </r>
       </set>
       <set comment="band 2">
        <r>  0.0208  0.1335  0.0000 </r>
       </set>
       <set comment="band 3">
        <r>  0.0812  0.1789  0.0000 </r>
       </set>
       <set comment="band 4">
        <r>  0.0000  0.3014  0.0000 </r>
       </set>
       <set comment="band 5">
        <r>  0.0555  0.0293  0.0000 </r>
       </set>
      </set>
      <set comment="kpoint 30">
       <set comment="band 1">
        <r>  0.2369  0.0593  0.0000 </r>
       </set>
       <set comment="band 2">
        <r>  0.0005  0.1504  0.0000 </r>
       </set>
       <set comment="band 3">
        <r>  0.1705  0.1365  0.0000 </r>
       </set>
       <set comment="band 4">
        <r>  0.0004  0.1546  0.0000 </r>
       </set>
       <set comment="band 5">
        <r>  0.0342  0.1372  0.0000 </r>
       </set>
      </set>
      <set comment="kpoint 31">
       <set comment="band 1">
        <r>  0.1609  0.1045  0.0000 </r>
       </set>
       <set comment="band 2">
        <r>  0.1684  0.1259  0.0000 </r>
       </set>
       <set comment="band 3">
        <r>  0.0012  0.2067  0.0000 </r>
       </set>
       <set comment="band 4">
        <r>  0.0875  0.1300  0.0000 </r>
       </set>
       <set comment="band 5">
        <r>  0.0506  0.0285  0.0000 </r>
       </set>
      </set>
      <set comment="kpoint 32">
       <set comment="band 1">
        <r>  0.2034  0.0556  0.0000 </r>
       </set>
       <set comment="band 2">
        <r>  0.0329  0.1583  0.0000 </r>
       </set>
       <set comment="band 3">
        <r>  0.0794  0.1441  0.0000 </r>
       </set>
       <set comment="band 4">
        <r>  0.1241  0.1942  0.0000 </r>
       </set>
       <set comment="band 5">
        <r>  0.0004  0.0875  0.0000 </r>
       </set>
      </set>
      <set comment="kpoint 33">
       <set comment="band 1">
        <r>  0.2361  0.0284  0.0000 </r>
       </set>
       <set comment="band 2">
        <r>  0.0375  0.1320  0.0000 </r>
       </set>
       <set comment="band 3">
        <r>  0.0719  0.1818  0.0000 </r>
       </set>
       <set comment="band 4">
        <r>  0.0020  0.2990  0.0000 </r>
       </set>
       <set comment="band 5">
        <r>  0.0020  0.1100  0.0000 </r>
       </set>
      </set>
      <set comment="kpoint 34">
       <set comment="band 1">
        <r>  0.2150  0.0227  0.0000 </r>
       </set>
       <set comment="band 2">
        <r>  0.0309  0.1509  0.0000 </r>
       </set>
       <set comment="band 3">
        <r>  0.0955  0.1740  0.0000 </r>
       </set>
       <set comment="band 4">
        <r>  0.0005  0.2795  0.0000 </r>
       </set>
       <set comment="band 5">
        <r>  0.0585  0.0142  0.0000 </r>
       </set>
      </set>
      <set comment="kpoint 35">
       <set comment="band 1">
        <r>  0.2003  0.0475  0.0000 </r>
       </set>
       <set comment="band 2">
        <r>  0.0616  0.1769  0.0000 </r>
       </set>
       <set comment="band 3">
        <r>  0.0041  0.1446  0.0000 </r>
       </set>
       <set comment="band 4">
        <r>  0.1366  0.1125  0.0000 </r>
       </set>
       <set comment="band 5">
        <r>  0.0040  0.1751  0.0000 </r>
       </set>
      </set>
      <set comment="kpoint 36">
       <set comment="band 1">
        <r>  0.2236  0.0537  0.0000 </r>
       </set>
       <set comment="band 2">
        <r>  0.0724  0.1364  0.0000 </r>
       </set>
       <set comment="band 3">
        <r>  0.0401  0.1498  0.0000 </r>
       </set>
       <set comment="band 4">
        <r>  0.0784  0.1633  0.0000 </r>
       </set>
       <set comment="band 5">
        <r>  0.0215  0.1029  0.0000 </r>
       </set>
      </set>
      <set comment="kpoint 37">
       <set comment="band 1">
        <r>  0.2030  0.0371  0.0000 </r>
       </set>
       <set comment="band 2">
        <r>  0.0575  0.1590  0.0000 </r>
       </set>
       <set comment="band 3">
        <r>  0.0061  0.1999  0.0000 </r>
       </set>
       <set comment="band 4">
        <r>  0.1380  0.1342  0.0000 </r>
       </set>
       <set comment="band 5">
        <r>  0.0091  0.0994  0.0000 </r>
       </set>
      </set>
      <set comment="kpoint 38">
       <set comment="band 1">
        <r>  0.2168  0.0188  0.0000 </r>
       </set>
       <set comment="band 2">
        <r>  0.0192  0.1670  0.0000 </r>
       </set>
       <set comment="band 3">
        <r>  0.0903  0.1516  0.0000 </r>
       </set>
       <set comment="band 4">
        <r>  0.0048  0.2935  0.0000 </r>
       </set>
       <set comment="band 5">
        <r>  0.0534  0.0641  0.0000 </r>
       </set>
      </set>
      <set comment="kpoint 39">
       <set comment="band 1">
        <r>  0.1967  0.0447  0.0000 </r>
       </set>
       <set comment="band 2">
        <r>  0.1057  0.1236  0.0000 </r>
       </set>
       <set comment="band 3">
        <r>  0.0003  0.2832  0.0000 </r>
       </set>
       <set comment="band 4">
        <r>  0.0261  0.0125  0.0000 </r>
       </set>
       <set comment="band 5">
        <r>  0.0359  0.2575  0.0000 </r>
       </set>
      </set>
      <set comment="kpoint 40">
       <set comment="band 1">
        <r>  0.3066  0.0108  0.0000 </r>
       </set>
       <set comment="band 2">
        <r>  0.0103  0.1575  0.0000 </r>
       </set>
       <set comment="band 3">
        <r>  0.0367  0.1474  0.0000 </r>
       </set>
       <set comment="band 4">
        <r>  0.0005  0.3471  0.0000 </r>
       </set>
       <set comment="band 5">
        <r>  0.0376  0.0169  0.0000 </r>
       </set>
      </set>
      <set comment="kpoint 41">
       <set comment="band 1">
        <r>  0.2898  0.0147  0.0000 </r>
       </set>
       <set comment="band 2">
        <r>  0.0042  0.1490  0.0000 </r>
       </set>
       <set comment="band 3">
        <r>  0.0576  0.1512  0.0000 </r>
       </set>
       <set comment="band 4">
        <r>  0.0057  0.3791  0.0000 </r>
       </set>
       <set comment="band 5">
        <r>  0.0425  0.0761  0.0000 </r>
       </set>
      </set>
      <set comment="kpoint 42">
       <set comment="band 1">
        <r>  0.2151  0.0315  0.0000 </r>
       </set>
       <set comment="band 2">
        <r>  0.0810  0.1237  0.0000 </r>
       </set>
       <set comment="band 3">
        <r>  0.0005  0.3161  0.0000 </r>
       </set>
       <set comment="band 4">
        <r>  0.0167  0.0172  0.0000 </r>
       </set>
       <set comment="band 5">
        <r>  0.0901  0.0608  0.0000 </r>
       </set>
      </set>
      <set comment="kpoint 43">
       <set comment="band 1">
        <r>  0.2052  0.0323  0.0000 </r>
       </set>
       <set comment="band 2">
        <r>  0.0898  0.1461  0.0000 </r>
       </set>
       <set comment="band 3">
        <r>  0.0350  0.1569  0.0000 </r>
       </set>
       <set comment="band 4">
        <r>  0.0199  0.2444  0.0000 </r>
       </set>
       <set comment="band 5">
        <r>  0.0254  0.1097  0.0000 </r>
       </set>
      </set>
      <set comment="kpoint 44">
       <set comment="band 1">
        <r>  0.1868  0.0506  0.0000 </r>
       </set>
       <set comment="band 2">
        <r>  0.1045  0.1461  0.0000 </r>
       </set>
       <set comment="band 3">
        <r>  0.0099  0.1974  0.0000 </r>
       </set>
       <set comment="band 4">
        <r>  0.0127  0.2754  0.0000 </r>
       </set>
       <set comment="band 5">
        <r>  0.0295  0.0424  0.0000 </r>
       </set>
      </set>
      <set comment="kpoint 45">
       <set comment="band 1">
        <r>  0.2133  0.0578  0.0000 </r>
       </set>
       <set comment="band 2">
        <r>  0.0909  0.1318  0.0000 </r>
       </set>
       <set comment="band 3">
        <r>  0.0300  0.1607  0.0000 </r>
       </set>
       <set comment="band 4">
        <r>  0.0787  0.1620  0.0000 </r>
       </set>
       <set comment="band 5">
        <r>  0.0153  0.1513  0.0000 </r>
       </set>
      </set>
      <set comment="kpoint 46">
       <set comment="band 1">
        <r>  0.2644  0.0383  0.0000 </r>
       </set>
       <set comment="band 2">
        <r>  0.0226  0.1494  0.0000 </r>
       </set>
       <set comment="band 3">
        <r>  0.0454  0.1509  0.0000 </r>
       </set>
       <set comment="band 4">
        <r>  0.0997  0.1920  0.0000 </r>
       </set>
       <set comment="band 5">
        <r>  0.0087  0.0602  0.0000 </r>
       </set>
      </set>
      <set comment="kpoint 47">
       <set comment="band 1">
        <r>  0.2051  0.0416  0.0000 </r>
       </set>
       <set comment="band 2">
        <r>  0.0789  0.1351  0.0000 </r>
       </set>
       <set comment="band 3">
        <r>  0.0453  0.1895  0.0000 </r>
       </set>
       <set comment="band 4">
        <r>  0.0240  0.2620  0.0000 </r>
       </set>
       <set comment="band 5">
        <r>  0.0021  0.0673  0.0000 </r>
       </set>
      </set>
      <set comment="kpoint 48">
       <set comment="band 1">
        <r>  0.1991  0.0381  0.0000 </r>
       </set>
       <set comment="band 2">
        <r>  0.0656  0.1646  0.0000 </r>
       </set>
       <set comment="band 3">
        <r>  0.0139  0.2034  0.0000 </r>
       </set>
       <set comment="band 4">
        <r>  0.1223  0.1697  0.0000 </r>
       </set>
       <set comment="band 5">
        <r>  0.0068  0.0928  0.0000 </r>
       </set>
      </set>
      <set comment="kpoint 49">
       <set comment="band 1">
        <r>  0.1705  0.0725  0.0000 </r>
       </set>
       <set comment="band 2">
        <r>  0.1564  0.1408  0.0000 </r>
       </set>
       <set comment="band 3">
        <r>  0.0219  0.2207  0.0000 </r>
       </set>
       <set comment="band 4">
        <r>  0.0267  0.0172  0.0000 </r>
       </set>
       <set comment="band 5">
        <r>  0.0029  0.3350  0.0000 </r>
       </set>
      </set>
      <set comment="kpoint 50">
       <set comment="band 1">
        <r>  0.1287  0.1123  0.0000 </r>
       </set>
       <set comment="band 2">
        <r>  0.1999  0.1144  0.0000 </r>
       </set>
       <set comment="band 3">
        <r>  0.0015  0.1861  0.0000 </r>
       </set>
       <set comment="band 4">
        <r>  0.0935  0.1739  0.0000 </r>
       </set>
       <set comment="band 5">
        <r>  0.0022  0.0163  0.0000 </r>
       </set>
      </set>
      <set comment="kpoint 51">
       <set comment="band 1">
        <r>  0.2193  0.0860  0.0000 </r>
       </set>
       <set comment="band 2">
        <r>  0.0912  0.1587  0.0000 </r>
       </set>
       <set comment="band 3">
        <r>  0.0179  0.1999  0.0000 </r>
       </set>
       <set comment="band 4">
        <r>  0.1256  0.1228  0.0000 </r>
       </set>
       <set comment="band 5">
        <r>  0.0146  0.0131  0.0000 </r>
       </set>
      </set>
      <set comment="kpoint 52">
       <set comment="band 1">
        <r>  0.1951  0.0655  0.0000 </r>
       </set>
       <set comment="band 2">
        <r>  0.0000  0.2097  0.0000 </r>
       </set>
       <set comment="band 3">
        <r>  0.1834  0.1015  0.0000 </r>
       </set>
       <set comment="band 4">
        <r>  0.0018  0.0448  0.0000 </r>
       </set>
       <set comment="band 5">
        <r>  0.0171  0.2828  0.0000 </r>
       </set>
      </set>
      <set comment="kpoint 53">
       <set comment="band 1">
        <r>  0.1912  0.0572  0.0000 </r>
       </set>
       <set comment="band 2">
        <r>  0.0344  0.1724  0.0000 </r>
       </set>
       <set comment="band 3">
        <r>  0.0961  0.1610  0.0000 </r>
       </set>
       <set comment="band 4">
        <r>  0.1185  0.1885  0.0000 </r>
       </set>
       <set comment="band 5">
        <r>  0.0004  0.1005  0.0000 </r>
       </set>
      </set>
      <set comment="kpoint 54">
       <set comment="band 1">
        <r>  0.2173  0.0805  0.0000 </r>
       </set>
       <set comment="band 2">
        <r>  0.0420  0.1617  0.0000 </r>
       </set>
       <set comment="band 3">
        <r>  0.0948  0.0929  0.0000 </r>
       </set>
       <set comment="band 4">
        <r>  0.0004  0.3102  0.0000 </r>
       </set>
       <set comment="band 5">
        <r>  0.0012  0.1086  0.0000 </r>
       </set>
      </set>
      <set comment="kpoint 55">
       <set comment="band 1">
        <r>  0.1349  0.1119  0.0000 </r>
       </set>
       <set comment="band 2">
        <r>  0.1975  0.1110  0.0000 </r>
       </set>
       <set comment="band 3">
        <r>  0.0090  0.2006  0.0000 </r>
       </set>
       <set comment="band 4">
        <r>  0.0659  0.1485  0.0000 </r>
       </set>
       <set comment="band 5">
        <r>  0.0705  0.0622  0.0000 </r>
       </set>
      </set>
      <set comment="kpoint 56">
       <set comment="band 1">
        <r>  0.2347  0.0676  0.0000 </r>
       </set>
       <set comment="band 2">
        <r>  0.0212  0.1661  0.0000 </r>
       </set>
       <set comment="band 3">
        <r>  0.0954  0.1822  0.0000 </r>
       </set>
       <set comment="band 4">
        <r>  0.1039  0.1828  0.0000 </r>
       </set>
       <set comment="band 5">
        <r>  0.0117  0.0475  0.0000 </r>
       </set>
      </set>
      <set comment="kpoint 57">
       <set comment="band 1">
        <r>  0.2209  0.0624  0.0000 </r>
       </set>
       <set comment="band 2">
        <r>  0.0012  0.1936  0.0000 </r>
       </set>
       <set comment="band 3">
        <r>  0.1416  0.0850  0.0000 </r>
       </set>
       <set comment="band 4">
        <r>  0.0139  0.0802  0.0000 </r>
       </set>
       <set comment="band 5">
        <r>  0.0990  0.0595  0.0000 </r>
       </set>
      </set>
      <set comment="kpoint 58">
       <set comment="band 1">
        <r>  0.2331  0.0567  0.0000 </r>
       </set>
       <set comment="band 2">
        <r>  0.0069  0.1508  0.0000 </r>
       </set>
       <set comment="band 3">
        <r>  0.1583  0.1378  0.0000 </r>
       </set>
       <set comment="band 4">
        <r>  0.0189  0.1695  0.0000 </r>
       </set>
       <set comment="band 5">
        <r>  0.0258  0.0968  0.0000 </r>
       </set>
      </set>
      <set comment="kpoint 59">
       <set comment="band 1">
        <r>  0.1994  0.0563  0.0000 </r>
       </set>
       <set comment="band 2">
        <r>  0.0909  0.1290  0.0000 </r>
       </set>
       <set comment="band 3">
        <r>  0.0515  0.1389  0.0000 </r>
       </set>
       <set comment="band 4">
        <r>  0.0005  0.2864  0.0000 </r>
       </set>
       <set comment="band 5">
        <r>  0.0933  0.0026  0.0000 </r>
       </set>
      </set>
      <set comment="kpoint 60">
       <set comment="band 1">
        <r>  0.2052  0.0623  0.0000 </r>
       </set>
       <set comment="band 2">
        <r>  0.1051  0.1281  0.0000 </r>
       </set>
       <set comment="band 3">
        <r>  0.0278  0.1542  0.0000 </r>
       </set>
       <set comment="band 4">
        <r>  0.0709  0.1545  0.0000 </r>
       </set>
       <set comment="band 5">
        <r>  0.0192  0.1544  0.0000 </r>
       </set>
      </set>
      <set comment="kpoint 61">
       <set comment="band 1">
        <r>  0.2792  0.0260  0.0000 </r>
       </set>
       <set comment="band 2">
        <r>  0.0010  0.1525  0.0000 </r>
       </set>
       <set comment="band 3">
        <r>  0.0444  0.1858  0.0000 </r>
       </set>
       <set comment="band 4">
        <r>  0.1113  0.2419  0.0000 </r>
       </set>
       <set comment="band 5">
        <r>  0.0005  0.0430  0.0000 </r>
       </set>
      </set>
      <set comment="kpoint 62">
       <set comment="band 1">
        <r>  0.2123  0.0415  0.0000 </r>
       </set>
       <set comment="band 2">
        <r>  0.0724  0.1322  0.0000 </r>
       </set>
       <set comment="band 3">
        <r>  0.0516  0.1591  0.0000 </r>
       </set>
       <set comment="band 4">
        <r>  0.0137  0.2679  0.0000 </r>
       </set>
       <set comment="band 5">
        <r>  0.0264  0.0643  0.0000 </r>
       </set>
      </set>
      <set comment="kpoint 63">
       <set comment="band 1">
        <r>  0.2024  0.0440  0.0000 </r>
       </set>
       <set comment="band 2">
        <r>  0.0540  0.1794  0.0000 </r>
       </set>
       <set comment="band 3">
        <r>  0.0003  0.1506  0.0000 </r>
       </set>
       <set comment="band 4">
        <r>  0.1477  0.1132  0.0000 </r>
       </set>
       <set comment="band 5">
        <r>  0.0034  0.1497  0.0000 </r>
       </set>
      </set>
     </set>
    </set>
   </array>
  </projected>
 </calculation>
 <structure name="finalpos" >
  <crystal>
   <varray name="basis" >
    <v>       3.05309016       0.26992264      -1.01201698 </v>
    <v>       0.02353372       3.07416826       0.45112076 </v>
    <v>      -0.76514699       0.02330515       3.04689700 </v>
   </varray>
   <i name="volume">     26.07166505 </i>
   <varray name="rec_basis" >
    <v>       0.35886318      -0.01598972       0.09024123 </v>
    <v>      -0.03244947       0.32710260      -0.01065077 </v>
    <v>       0.12399968      -0.05374144       0.35975303 </v>
   </varray>
  </crystal>
  <varray name="positions" >
   <v>       0.92371990       0.41872333       0.93385728 </v>
  </varray>
 </structure>
</modeling>
