unknown system                          
           1
     3.053090    0.269923   -1.012017
     0.023534    3.074168    0.451121
    -0.765147    0.023305    3.046897
   Al
   1
Direct configuration=     1
   0.92371990  0.41872333  0.93385728
