       N       E                     dE             d eps       ncg     rms          rms(c)
DAV:   1     0.886648613123E+04    0.88665E+04   -0.34235E+05 12960   0.166E+03
DAV:   2     0.800670996991E+03   -0.80658E+04   -0.74320E+04 12960   0.368E+02
DAV:   3    -0.531515583063E+03   -0.13322E+04   -0.10850E+04 12960   0.169E+02
DAV:   4    -0.626362792208E+03   -0.94847E+02   -0.92044E+02 13740   0.557E+01
DAV:   5    -0.627944712923E+03   -0.15819E+01   -0.15795E+01 16872   0.671E+00    0.146E+02
RMM:   6    -0.605037607553E+03    0.22907E+02   -0.89979E+02 12960   0.587E+01    0.164E+02
RMM:   7    -0.699515853271E+03   -0.94478E+02   -0.28107E+02 12960   0.298E+01    0.147E+02
RMM:   8    -0.721763906493E+03   -0.22248E+02   -0.10330E+02 12960   0.179E+01    0.160E+02
RMM:   9    -0.584781586381E+03    0.13698E+03   -0.86564E+01 12960   0.175E+01    0.863E+01
RMM:  10    -0.641491248807E+03   -0.56710E+02   -0.91296E+01 12961   0.160E+01    0.135E+02
RMM:  11    -0.614413709920E+03    0.27078E+02   -0.51375E+01 12963   0.121E+01    0.818E+01
RMM:  12    -0.578858153739E+03    0.35556E+02   -0.31924E+01 12964   0.104E+01    0.534E+01
RMM:  13    -0.589439086479E+03   -0.10581E+02   -0.18973E+01 12963   0.773E+00    0.514E+01
RMM:  14    -0.587623703472E+03    0.18154E+01   -0.77881E+00 12962   0.486E+00    0.346E+01
RMM:  15    -0.590640775048E+03   -0.30171E+01   -0.54929E+00 12979   0.389E+00    0.438E+01
RMM:  16    -0.589349994443E+03    0.12908E+01   -0.42114E+00 12980   0.346E+00    0.340E+01
RMM:  17    -0.588020852736E+03    0.13291E+01   -0.16532E+00 13006   0.212E+00    0.213E+01
RMM:  18    -0.587613508404E+03    0.40734E+00   -0.18489E+00 12987   0.236E+00    0.169E+01
RMM:  19    -0.587036863508E+03    0.57664E+00   -0.44972E-01 13013   0.112E+00    0.638E+00
RMM:  20    -0.587092416744E+03   -0.55553E-01   -0.10367E-01 13418   0.520E-01    0.518E+00
RMM:  21    -0.587079347603E+03    0.13069E-01   -0.58225E-02 13036   0.414E-01    0.445E+00
RMM:  22    -0.587049046926E+03    0.30301E-01   -0.30811E-01 13088   0.368E-01    0.179E+00
RMM:  23    -0.587051671365E+03   -0.26244E-02   -0.54804E-03 14480   0.122E-01    0.139E+00
RMM:  24    -0.587045534458E+03    0.61369E-02   -0.35145E-01 13065   0.111E-01    0.701E-01
RMM:  25    -0.587044772696E+03    0.76176E-03    0.12602E-04 13599   0.484E-02    0.443E-01
RMM:  26    -0.587044382368E+03    0.39033E-03    0.10371E-03 14074   0.264E-02    0.200E-01
RMM:  27    -0.587044277597E+03    0.10477E-03    0.46372E-04 13589   0.195E-02    0.131E-01
RMM:  28    -0.587044290608E+03   -0.13011E-04    0.21971E-02 13846   0.102E-02    0.503E-02
RMM:  29    -0.587042305047E+03    0.19856E-02    0.16417E-02 14935   0.469E-03    0.425E-02
RMM:  30    -0.587043889991E+03   -0.15849E-02    0.45940E-01 15544  -0.435E-03    0.292E-02
RMM:  31    -0.587048592720E+03   -0.47027E-02    0.15465E-01 13520  -0.539E-04    0.156E-01
RMM:  32    -0.587044136003E+03    0.44567E-02   -0.11289E+00 10667   0.214E-02    0.172E-02
RMM:  33    -0.587098185343E+03   -0.54049E-01    0.68245E-02 11526   0.294E-04    0.394E-01
RMM:  34    -0.587051422127E+03    0.46763E-01   -0.52535E+00 12213   0.792E-02    0.387E-02
RMM:  35    -0.587043260229E+03    0.81619E-02   -0.23515E-01 10925   0.670E-03    0.249E-02
RMM:  36    -0.587044312163E+03   -0.10519E-02   -0.30305E-01  9381   0.536E-03    0.657E-03
RMM:  37    -0.587044237869E+03    0.74294E-04    0.67544E-04  8258   0.480E-04    0.516E-03
RMM:  38    -0.587044243732E+03   -0.58632E-05    0.71955E-03  8228   0.111E-04    0.365E-03
RMM:  39    -0.587053374575E+03   -0.91308E-02    0.31135E-02  8127  -0.187E-04    0.205E-01
RMM:  40    -0.587112269411E+03   -0.58895E-01   -0.15340E+00 10611   0.329E-02    0.450E-01
RMM:  41    -0.587042066488E+03    0.70203E-01   -0.78896E+00 12572   0.121E-01    0.171E-02
RMM:  42    -0.587144393764E+03   -0.10233E+00    0.24664E-01 12883  -0.689E-04    0.570E-01
RMM:  43    -0.587053012440E+03    0.91381E-01   -0.12174E+01 12950   0.183E-01    0.341E-02
RMM:  44    -0.587042186068E+03    0.10826E-01   -0.23608E-01 12910   0.827E-03    0.287E-02
RMM:  45    -0.587043833394E+03   -0.16473E-02    0.45498E-01 10226  -0.546E-03    0.133E-02
RMM:  46    -0.587043274156E+03    0.55924E-03    0.12363E-01  8123  -0.137E-03    0.120E-02
RMM:  47    -0.587042781651E+03    0.49250E-03    0.19975E-01  8216  -0.264E-03    0.190E-02
RMM:  48    -0.587042947770E+03   -0.16612E-03    0.23045E-01  8005  -0.327E-03    0.207E-02
RMM:  49    -0.587155259087E+03   -0.11231E+00   -0.37991E-01  8142   0.592E-03    0.336E-01
RMM:  50    -0.587187002047E+03   -0.31743E-01   -0.20817E+00 12203   0.438E-02    0.326E-01
RMM:  51    -0.587040009303E+03    0.14699E+00   -0.31792E+00  8314   0.518E-02    0.337E-02
RMM:  52    -0.587043196914E+03   -0.31876E-02    0.18904E-01 12400  -0.821E-04    0.164E-02
RMM:  53    -0.587042972311E+03    0.22460E-03    0.87728E-02  8187  -0.103E-03    0.635E-03
RMM:  54    -0.587044568134E+03   -0.15958E-02    0.40480E-02  8089  -0.260E-04    0.714E-03
RMM:  55    -0.587041248926E+03    0.33192E-02   -0.57389E-02  8128   0.188E-03    0.267E-02
RMM:  56    -0.587043574017E+03   -0.23251E-02   -0.56024E-01  8065   0.737E-03    0.205E-02
RMM:  57    -0.587041048033E+03    0.25260E-02    0.13937E-01  8086  -0.209E-03    0.197E-02
RMM:  58    -0.587044098789E+03   -0.30508E-02    0.16651E-01  8165  -0.340E-03    0.509E-03
RMM:  59    -0.587043249787E+03    0.84900E-03    0.96558E-03  8005  -0.871E-05    0.180E-02
RMM:  60    -0.587044053523E+03   -0.80374E-03    0.16196E-01  6584  -0.224E-03    0.951E-03
RMM:  61    -0.587043187587E+03    0.86594E-03    0.56364E-02  6010  -0.928E-04    0.222E-02
RMM:  62    -0.587042679770E+03    0.50782E-03    0.10824E-01  7318  -0.168E-03    0.772E-03
RMM:  63    -0.587040651297E+03    0.20285E-02    0.81832E-02  7381  -0.130E-03    0.732E-02
RMM:  64    -0.587041720749E+03   -0.10695E-02   -0.87660E-01  8162   0.162E-02    0.334E-03
RMM:  65    -0.587049637665E+03   -0.79169E-02   -0.15292E-02  8109   0.818E-04    0.176E-01
RMM:  66    -0.587042985489E+03    0.66522E-02   -0.25270E+00  8475   0.351E-02    0.379E-03
RMM:  67    -0.587042291387E+03    0.69410E-03   -0.98616E-03  8151   0.106E-03    0.160E-02
RMM:  68    -0.587042371254E+03   -0.79866E-04    0.12414E-01  8033  -0.216E-03    0.275E-02
RMM:  69    -0.587044112479E+03   -0.17412E-02    0.22893E-01  8045  -0.444E-03    0.539E-03
RMM:  70    -0.587043869157E+03    0.24332E-03    0.42818E-02  8105  -0.605E-04    0.767E-03
RMM:  71    -0.587044131954E+03   -0.26280E-03    0.62769E-02  6176  -0.121E-03    0.432E-03
RMM:  72    -0.587044292187E+03   -0.16023E-03    0.15064E-02  7337  -0.262E-04    0.355E-03
RMM:  73    -0.587044047801E+03    0.24439E-03    0.73238E-03  4338  -0.250E-05    0.453E-03
RMM:  74    -0.587044308663E+03   -0.26086E-03   -0.15623E-02  7354   0.497E-04    0.319E-03
RMM:  75    -0.587039793731E+03    0.45149E-02    0.33069E-03  6200   0.619E-05    0.528E-02
RMM:  76    -0.587045891875E+03   -0.60981E-02    0.47649E-01  8031  -0.844E-03    0.275E-02
RMM:  77    -0.587055043432E+03   -0.91516E-02    0.13301E-02  8052   0.859E-04    0.411E-02
RMM:  78    -0.587044305824E+03    0.10738E-01   -0.72940E-01  8037   0.122E-02    0.354E-03
RMM:  79    -0.587098606839E+03   -0.54301E-01    0.52080E-03  8016   0.250E-04    0.485E-01
RMM:  80    -0.587044083062E+03    0.54524E-01   -0.65617E+00 12634   0.951E-02    0.692E-03
RMM:  81    -0.587042202176E+03    0.18809E-02    0.32193E-02 12157   0.108E-03    0.296E-02
RMM:  82    -0.587044288653E+03   -0.20865E-02    0.98882E-03  7768   0.334E-03    0.454E-03
RMM:  83    -0.587041758260E+03    0.25304E-02    0.15620E-02  8167   0.296E-04    0.360E-02
RMM:  84    -0.587043411361E+03   -0.16531E-02    0.39524E-01  8037  -0.623E-03    0.177E-02
RMM:  85    -0.587041097208E+03    0.23142E-02    0.17190E-02  8016  -0.519E-04    0.247E-02
RMM:  86    -0.587044284962E+03   -0.31878E-02    0.22376E-01  8108  -0.474E-03    0.360E-03
RMM:  87    -0.587084719062E+03   -0.40434E-01    0.34480E-03  8012   0.140E-04    0.356E-01
RMM:  88    -0.587042468854E+03    0.42250E-01   -0.50180E+00 12059   0.725E-02    0.478E-02
RMM:  89    -0.587049673642E+03   -0.72048E-02   -0.10698E+00 10779   0.160E-02    0.150E-01
RMM:  90    -0.587043439073E+03    0.62346E-02    0.65849E-02  8578   0.115E-03    0.187E-02
RMM:  91    -0.587043939581E+03   -0.50051E-03    0.11946E-01  9766  -0.150E-03    0.868E-03
RMM:  92    -0.587044249475E+03   -0.30989E-03    0.51835E-02  8007  -0.274E-04    0.575E-03
RMM:  93    -0.587043958818E+03    0.29066E-03    0.28617E-02  8000  -0.124E-04    0.771E-03
RMM:  94    -0.587044079716E+03   -0.12090E-03    0.60969E-02  8112  -0.979E-04    0.684E-03
RMM:  95    -0.587043449628E+03    0.63009E-03    0.68568E-02  7454  -0.975E-04    0.166E-02
RMM:  96    -0.587202700301E+03   -0.15925E+00    0.17807E-01  7714  -0.237E-03    0.160E-01
RMM:  97    -0.587067539820E+03    0.13516E+00   -0.74371E-01 11292   0.244E-02    0.293E-01
RMM:  98    -0.587346074939E+03   -0.27854E+00   -0.42263E+00 12304   0.721E-02    0.349E-01
RMM:  99    -0.587173864342E+03    0.17221E+00   -0.23393E+00 12228   0.492E-02    0.488E-01
RMM: 100    -0.587044104718E+03    0.12976E+00   -0.58791E+00 12778   0.882E-02    0.858E-03
RMM: 101    -0.587129376014E+03   -0.85271E-01    0.19475E-02 12601   0.157E-03    0.188E-01
RMM: 102    -0.587156199853E+03   -0.26824E-01   -0.81837E-01  9965   0.260E-02    0.184E-01
RMM: 103    -0.587040690411E+03    0.11551E+00   -0.24748E-01  8183   0.135E-02    0.466E-02
RMM: 104    -0.587159601848E+03   -0.11891E+00    0.10378E-01 11497  -0.109E-03    0.402E-01
RMM: 105    -0.587140978463E+03    0.18623E-01   -0.19484E+00 12998   0.464E-02    0.205E-01
RMM: 106    -0.587163251987E+03   -0.22274E-01    0.34004E-03 12382   0.405E-03    0.209E-01
RMM: 107    -0.587286697826E+03   -0.12345E+00    0.76864E-03  9810   0.577E-03    0.220E-01
RMM: 108    -0.587285448705E+03    0.12491E-02   -0.10933E+00  9492   0.348E-02    0.383E-01
RMM: 109    -0.587041128813E+03    0.24432E+00   -0.37329E+00 12169   0.691E-02    0.524E-02
RMM: 110    -0.587044887350E+03   -0.37585E-02    0.21798E-01 12971  -0.856E-04    0.235E-02
RMM: 111    -0.587043777879E+03    0.11095E-02   -0.13892E-01  8252   0.335E-03    0.151E-02
RMM: 112    -0.587044087129E+03   -0.30925E-03    0.80523E-02  8156  -0.101E-03    0.338E-03
RMM: 113    -0.587043450875E+03    0.63625E-03   -0.45251E-02  8095   0.113E-03    0.179E-02
RMM: 114    -0.587039984316E+03    0.34666E-02    0.14133E-01  7941  -0.194E-03    0.293E-02
RMM: 115    -0.587040913846E+03   -0.92953E-03    0.13609E-01  7812  -0.231E-03    0.254E-02
RMM: 116    -0.587044168365E+03   -0.32545E-02    0.12384E-01  8089  -0.227E-03    0.754E-03
RMM: 117    -0.587043823807E+03    0.34456E-03    0.42915E-02  8009  -0.412E-04    0.615E-03
RMM: 118    -0.587039823335E+03    0.40005E-02    0.22950E-02  7839  -0.668E-04    0.195E-02
RMM: 119    -0.587042055954E+03   -0.22326E-02    0.38254E-02  7988  -0.424E-05    0.186E-02
RMM: 120    -0.587054184770E+03   -0.12129E-01    0.10581E-01  7958  -0.210E-03
   1 F= -.58705418E+03 E0= -.58701327E+03  d E =-.587054E+03  mag=    62.5576
       N       E                     dE             d eps       ncg     rms          rms(c)
DAV:   1    -0.587283283152E+03   -0.24123E+00   -0.14456E+02 14094   0.122E+01    0.456E+00
RMM:   2    -0.590054052874E+03   -0.27708E+01   -0.49535E+00 12996   0.406E+00    0.240E+01
RMM:   3    -0.587673085682E+03    0.23810E+01   -0.14040E+00 13198   0.194E+00    0.732E+00
RMM:   4    -0.587568651753E+03    0.10443E+00   -0.27794E-01 13732   0.883E-01    0.493E+00
RMM:   5    -0.587623466213E+03   -0.54814E-01   -0.10338E-01 13128   0.527E-01    0.642E+00
RMM:   6    -0.587498818428E+03    0.12465E+00   -0.63699E-02 12988   0.429E-01    0.140E+00
RMM:   7    -0.587502609160E+03   -0.37907E-02   -0.18084E-02 13224   0.222E-01    0.187E+00
RMM:   8    -0.587490869091E+03    0.11740E-01   -0.10170E-02 13018   0.167E-01    0.899E-01
RMM:   9    -0.587489722390E+03    0.11467E-02   -0.74622E-03 12987   0.143E-01    0.807E-01
RMM:  10    -0.587486700823E+03    0.30216E-02   -0.34845E-03 13186   0.911E-02    0.298E-01
RMM:  11    -0.587486073143E+03    0.62768E-03   -0.42355E-04 13567   0.416E-02    0.239E-01
RMM:  12    -0.587492869779E+03   -0.67966E-02   -0.74076E-02 13397   0.232E-02    0.122E-01
RMM:  13    -0.587483713149E+03    0.91566E-02   -0.50082E-01 13407   0.304E-02    0.734E-02
RMM:  14    -0.587505881882E+03   -0.22169E-01    0.22823E-02 13717   0.580E-03    0.426E-02
RMM:  15    -0.587535704486E+03   -0.29823E-01   -0.24101E-01 13367   0.108E-02    0.272E-02
RMM:  16    -0.587486452889E+03    0.49252E-01   -0.58455E-01 13107   0.152E-02    0.441E-02
RMM:  17    -0.587516702786E+03   -0.30250E-01   -0.47997E-02 12989   0.580E-03    0.107E-01
RMM:  18    -0.587484574872E+03    0.32128E-01   -0.12900E+00 12692   0.254E-02    0.438E-02
RMM:  19    -0.587483148325E+03    0.14265E-02    0.45368E-01 11862  -0.520E-03    0.206E-02
RMM:  20    -0.587487049416E+03   -0.39011E-02   -0.11444E-01  9906   0.224E-03    0.664E-02
RMM:  21    -0.587513144588E+03   -0.26095E-01   -0.10934E+00  8390   0.180E-02    0.182E-01
RMM:  22    -0.587491447006E+03    0.21698E-01   -0.71118E-01  9170   0.239E-02    0.863E-02
RMM:  23    -0.587485008155E+03    0.64389E-02   -0.18627E+00  8344   0.281E-02    0.356E-02
RMM:  24    -0.587480155641E+03    0.48525E-02    0.34467E-01  9597  -0.427E-03    0.143E-02
RMM:  25    -0.587549038420E+03   -0.68883E-01   -0.13240E-01  8311   0.284E-03    0.493E-01
RMM:  26    -0.587599238752E+03   -0.50200E-01   -0.59522E+00 12977   0.110E-01    0.768E-01
RMM:  27    -0.587480691248E+03    0.11855E+00   -0.10192E+00 12929   0.383E-02    0.455E-02
RMM:  28    -0.587480053165E+03    0.63808E-03    0.14446E-01 12968   0.579E-05    0.979E-02
RMM:  29    -0.587483804442E+03   -0.37513E-02   -0.18213E+00  8794   0.293E-02    0.403E-02
RMM:  30    -0.587485741290E+03   -0.19368E-02    0.29911E-01  8651  -0.492E-03    0.232E-02
RMM:  31    -0.587483177277E+03    0.25640E-02    0.10188E-01  8298  -0.145E-03    0.189E-02
RMM:  32    -0.587486170000E+03   -0.29927E-02   -0.67816E-01  8077   0.924E-03    0.194E-02
RMM:  33    -0.587486302244E+03   -0.13224E-03    0.17394E-02  8075  -0.239E-04    0.193E-02
RMM:  34    -0.587487069341E+03   -0.76710E-03    0.29496E-02  8204  -0.113E-04    0.238E-02
RMM:  35    -0.587486399362E+03    0.66998E-03   -0.17405E-01  8087   0.404E-03    0.165E-02
RMM:  36    -0.587519649593E+03   -0.33250E-01    0.16010E-02  8142   0.283E-04    0.590E-01
RMM:  37    -0.587485029518E+03    0.34620E-01   -0.57861E+00 12926   0.939E-02    0.245E-02
RMM:  38    -0.587534454017E+03   -0.49424E-01    0.83557E-02 12732   0.931E-04    0.411E-01
RMM:  39    -0.587485292452E+03    0.49162E-01   -0.43250E+00 11509   0.668E-02    0.220E-02
RMM:  40    -0.587485374615E+03   -0.82163E-04    0.16844E-01 11926  -0.597E-04    0.220E-02
RMM:  41    -0.587486827957E+03   -0.14533E-02    0.10406E-01  7823  -0.118E-03    0.690E-03
RMM:  42    -0.587492082519E+03   -0.52546E-02   -0.10312E-01  8202   0.263E-03    0.152E-01
RMM:  43    -0.587486386233E+03    0.56963E-02   -0.31280E+00  8232   0.461E-02    0.120E-02
RMM:  44    -0.587486251206E+03    0.13503E-03    0.49691E-03  8091   0.617E-04    0.122E-02
RMM:  45    -0.587486236326E+03    0.14880E-04    0.28911E-02  8114  -0.266E-04    0.126E-02
RMM:  46    -0.587526923442E+03   -0.40687E-01    0.37679E-02  8027  -0.438E-04    0.412E-01
RMM:  47    -0.587491610284E+03    0.35313E-01   -0.31153E+00 12775   0.618E-02    0.205E-02
RMM:  48    -0.587484233520E+03    0.73768E-02   -0.31675E-01 12641   0.883E-03    0.180E-02
RMM:  49    -0.587484607365E+03   -0.37384E-03    0.76393E-02  7814  -0.735E-04    0.329E-02
RMM:  50    -0.587486280484E+03   -0.16731E-02   -0.68319E-01  8204   0.112E-02    0.126E-02
RMM:  51    -0.587486157121E+03    0.12336E-03    0.14863E-02  7987   0.154E-05    0.149E-02
RMM:  52    -0.587483827195E+03    0.23299E-02    0.68162E-02  7980  -0.901E-04    0.205E-02
RMM:  53    -0.587483476771E+03    0.35042E-03    0.21357E-01  7963  -0.304E-03    0.286E-02
RMM:  54    -0.587491543524E+03   -0.80668E-02   -0.45642E-02  7987   0.533E-04    0.122E-01
RMM:  55    -0.587589121512E+03   -0.97578E-01   -0.64600E-01  8181   0.166E-02    0.751E-01
RMM:  56    -0.587485210099E+03    0.10391E+00   -0.73009E+00 12954   0.116E-01    0.226E-02
RMM:  57    -0.587516643783E+03   -0.31434E-01    0.21535E-01 12918  -0.119E-04    0.517E-01
RMM:  58    -0.587485723662E+03    0.30920E-01   -0.58895E+00 12625   0.883E-02    0.202E-02
RMM:  59    -0.587485401703E+03    0.32196E-03    0.12762E-01 12953   0.180E-04    0.230E-02
RMM:  60    -0.587525127570E+03   -0.39726E-01    0.58029E-02  8323  -0.266E-04    0.301E-01
RMM:  61    -0.587485962604E+03    0.39165E-01   -0.35335E+00 11895   0.720E-02    0.156E-02
RMM:  62    -0.587483800831E+03    0.21618E-02    0.40369E-02 11663   0.835E-04    0.226E-02
RMM:  63    -0.587484665489E+03   -0.86466E-03   -0.19537E-02  7800   0.118E-03    0.332E-02
RMM:  64    -0.587482054458E+03    0.26110E-02    0.18864E-01  8091  -0.332E-03    0.306E-02
RMM:  65    -0.587485633981E+03   -0.35795E-02   -0.55051E-01  8013   0.100E-02    0.177E-02
RMM:  66    -0.587487229726E+03   -0.15957E-02    0.89737E-02  8071  -0.170E-03    0.259E-02
RMM:  67    -0.587486373509E+03    0.85622E-03   -0.86549E-02  8195   0.293E-03    0.911E-03
RMM:  68    -0.587484483968E+03    0.18895E-02    0.11030E-02  8035   0.377E-04    0.196E-02
RMM:  69    -0.587486121268E+03   -0.16373E-02    0.19288E-01  8058  -0.298E-03    0.238E-02
RMM:  70    -0.587563174541E+03   -0.77053E-01   -0.56477E-02  7965   0.380E-03    0.205E-01
RMM:  71    -0.587484682938E+03    0.78492E-01   -0.30170E+00 12706   0.615E-02    0.210E-02
RMM:  72    -0.587485672032E+03   -0.98909E-03   -0.23398E-01 12257   0.523E-03    0.181E-02
RMM:  73    -0.587487545016E+03   -0.18730E-02    0.19570E-01  7757  -0.216E-03    0.102E-01
RMM:  74    -0.587484128627E+03    0.34164E-02   -0.13577E-01  8797   0.774E-03    0.236E-02
RMM:  75    -0.587485737310E+03   -0.16087E-02    0.17716E-01  8030  -0.265E-03    0.143E-02
RMM:  76    -0.587488457896E+03   -0.27206E-02    0.95271E-02  7978  -0.112E-03    0.188E-02
RMM:  77    -0.587639807082E+03   -0.15135E+00   -0.32856E-01  8072   0.678E-03    0.202E-01
RMM:  78    -0.587486337760E+03    0.15347E+00   -0.34329E+00 11994   0.655E-02    0.109E-02
RMM:  79    -0.587486228264E+03    0.10950E-03    0.24175E-02 11208   0.147E-03    0.116E-02
RMM:  80    -0.587484090201E+03    0.21381E-02    0.39791E-02  7867  -0.143E-04    0.205E-02
RMM:  81    -0.587485920039E+03   -0.18298E-02   -0.48281E-01  8073   0.837E-03    0.165E-02
RMM:  82    -0.587485983356E+03   -0.63318E-04    0.12365E-01  8044  -0.157E-03    0.156E-02
RMM:  83    -0.587482874082E+03    0.31093E-02    0.72580E-02  7965  -0.300E-04    0.275E-02
RMM:  84    -0.587486295100E+03   -0.34210E-02    0.26835E-01  8004  -0.516E-03    0.105E-02
RMM:  85    -0.587485859645E+03    0.43545E-03    0.13237E-02  7983  -0.117E-04    0.171E-02
RMM:  86    -0.587502554001E+03   -0.16694E-01    0.16912E-01  4344  -0.238E-03    0.138E-01
RMM:  87    -0.587483669211E+03    0.18885E-01   -0.16543E+00 10643   0.364E-02    0.192E-02
RMM:  88    -0.587520972909E+03   -0.37304E-01    0.13206E-01  9505  -0.924E-04    0.154E-01
RMM:  89    -0.587486089692E+03    0.34883E-01   -0.22244E+00 11239   0.426E-02    0.146E-02
RMM:  90    -0.587512379215E+03   -0.26290E-01    0.68772E-02 10840   0.319E-04    0.144E-01
RMM:  91    -0.587484344435E+03    0.28035E-01   -0.16651E+00 11858   0.468E-02    0.330E-02
RMM:  92    -0.587484242712E+03    0.10172E-03    0.40992E-01 11265  -0.446E-03    0.141E-02
RMM:  93    -0.587484234132E+03    0.85799E-05    0.74690E-03  7782   0.235E-04    0.267E-02
RMM:  94    -0.587486281473E+03   -0.20473E-02   -0.56939E-01  8100   0.100E-02    0.114E-02
RMM:  95    -0.587485865703E+03    0.41577E-03    0.14972E-02  7973   0.902E-06    0.130E-02
RMM:  96    -0.587484813996E+03    0.10517E-02    0.33943E-02  8044  -0.668E-04    0.233E-02
RMM:  97    -0.587484385781E+03    0.42822E-03    0.14539E-01  8015  -0.328E-03    0.336E-02
RMM:  98    -0.587483774315E+03    0.61147E-03    0.13874E-01  7937  -0.267E-03    0.129E-02
RMM:  99    -0.587486224139E+03   -0.24498E-02    0.87759E-03  7877  -0.706E-05    0.119E-02
RMM: 100    -0.587484892311E+03    0.13318E-02    0.11685E-02  6505  -0.104E-04    0.297E-02
RMM: 101    -0.587484664944E+03    0.22737E-03    0.38337E-01  7696  -0.522E-03    0.289E-02
RMM: 102    -0.587485318091E+03   -0.65315E-03    0.27746E-01  7507  -0.460E-03    0.225E-02
RMM: 103    -0.587486398970E+03   -0.10809E-02    0.92133E-02  6705  -0.173E-03    0.102E-02
RMM: 104    -0.587483678208E+03    0.27208E-02    0.31272E-03  7941   0.942E-05    0.173E-02
RMM: 105    -0.587486312729E+03   -0.26345E-02   -0.56179E-02  7435   0.160E-03    0.107E-02
RMM: 106    -0.587486386869E+03   -0.74139E-04    0.31853E-02  7158  -0.397E-04    0.107E-02
RMM: 107    -0.587486016917E+03    0.36995E-03    0.17652E-02  5727  -0.105E-04    0.164E-02
RMM: 108    -0.587497707216E+03   -0.11690E-01    0.12468E-01  3897  -0.180E-03    0.213E-01
RMM: 109    -0.587511927678E+03   -0.14220E-01   -0.19750E+00  8994   0.342E-02    0.479E-01
RMM: 110    -0.587485392339E+03    0.26535E-01   -0.37803E+00 11952   0.692E-02    0.203E-02
RMM: 111    -0.587482723560E+03    0.26688E-02    0.12031E-01 12708  -0.178E-05    0.289E-02
RMM: 112    -0.587481643200E+03    0.10804E-02    0.93164E-02  7778  -0.156E-03    0.352E-02
RMM: 113    -0.587483856987E+03   -0.22138E-02    0.29796E-01  8127  -0.521E-03    0.216E-02
RMM: 114    -0.587485809846E+03   -0.19529E-02    0.10511E-01  8003  -0.243E-03    0.155E-02
RMM: 115    -0.587483477096E+03    0.23327E-02    0.67709E-02  7941  -0.132E-03    0.240E-02
RMM: 116    -0.587635382541E+03   -0.15191E+00   -0.36006E-02  7424   0.421E-04    0.488E-01
RMM: 117    -0.587483864054E+03    0.15152E+00   -0.10417E+01 12722   0.157E-01    0.167E-02
RMM: 118    -0.587484746158E+03   -0.88210E-03    0.71821E-02 12542   0.832E-04    0.180E-02
RMM: 119    -0.587519385962E+03   -0.34640E-01    0.13551E-01  7834  -0.161E-03    0.308E-01
RMM: 120    -0.587486316550E+03    0.33069E-01   -0.66179E-01 12320   0.267E-02
   2 F= -.58748632E+03 E0= -.58744298E+03  d E =-.432132E+00  mag=    62.5712
       N       E                     dE             d eps       ncg     rms          rms(c)
DAV:   1    -0.587499958908E+03    0.19427E-01   -0.25924E+01 13728   0.516E+00    0.176E+00
RMM:   2    -0.587888753432E+03   -0.38879E+00   -0.66974E-01 13128   0.149E+00    0.101E+01
RMM:   3    -0.587554816094E+03    0.33394E+00   -0.20153E-01 13255   0.731E-01    0.255E+00
RMM:   4    -0.587555518053E+03   -0.70196E-03   -0.43373E-02 13693   0.350E-01    0.268E+00
RMM:   5    -0.587552755737E+03    0.27623E-02   -0.16839E-02 13119   0.216E-01    0.241E+00
RMM:   6    -0.587534614546E+03    0.18141E-01   -0.10260E-02 12968   0.171E-01    0.520E-01
RMM:   7    -0.587535921578E+03   -0.13070E-02   -0.30052E-03 13218   0.907E-02    0.854E-01
RMM:   8    -0.587533319688E+03    0.26019E-02   -0.17581E-03 13007   0.714E-02    0.322E-01
RMM:   9    -0.587533573539E+03   -0.25385E-03   -0.12617E-03 12974   0.606E-02    0.436E-01
RMM:  10    -0.587532904555E+03    0.66898E-03   -0.67049E-04 13012   0.470E-02    0.255E-01
RMM:  11    -0.587531260183E+03    0.16444E-02    0.47812E-04 13290   0.237E-02    0.606E-02
RMM:  12    -0.587535238539E+03   -0.39784E-02   -0.74369E-02 14135   0.120E-02    0.573E-02
RMM:  13    -0.587563143542E+03   -0.27905E-01   -0.36389E-01 13174   0.118E-02    0.320E-01
RMM:  14    -0.587560531181E+03    0.26124E-02   -0.64376E-01 14781   0.233E-02    0.342E-02
RMM:  15    -0.587680883121E+03   -0.12035E+00   -0.39351E-01 13048   0.688E-03    0.459E-01
RMM:  16    -0.587593326705E+03    0.87556E-01   -0.58923E+00 13086   0.109E-01    0.491E-01
RMM:  17    -0.587538365995E+03    0.54961E-01   -0.34110E+00 12573   0.712E-02    0.290E-01
RMM:  18    -0.587600927058E+03   -0.62561E-01   -0.18534E+00 12141   0.369E-02    0.244E-01
RMM:  19    -0.587531925497E+03    0.69002E-01   -0.40187E+00 12591   0.665E-02    0.347E-02
RMM:  20    -0.587536289540E+03   -0.43640E-02   -0.52314E-01 13035   0.112E-02    0.463E-02
RMM:  21    -0.587532425909E+03    0.38636E-02   -0.29754E-01 12981   0.865E-03    0.251E-02
RMM:  22    -0.587532524945E+03   -0.99036E-04    0.96206E-02 12939   0.538E-04    0.159E-02
RMM:  23    -0.587531664772E+03    0.86017E-03   -0.82211E-03 12137   0.162E-03    0.241E-02
RMM:  24    -0.587534752384E+03   -0.30876E-02    0.60839E-02  8058  -0.118E-03    0.872E-02
RMM:  25    -0.587529742338E+03    0.50100E-02   -0.82465E-01  8300   0.199E-02    0.291E-02
RMM:  26    -0.587666242167E+03   -0.13650E+00   -0.40668E-01  8076   0.507E-03    0.333E-01
RMM:  27    -0.587581764422E+03    0.84478E-01   -0.71143E+00 10992   0.105E-01    0.369E-01
RMM:  28    -0.587534280445E+03    0.47484E-01   -0.13322E+00 11323   0.361E-02    0.129E-01
RMM:  29    -0.587599644691E+03   -0.65364E-01   -0.24051E+00  9436   0.369E-02    0.701E-01
RMM:  30    -0.587672033249E+03   -0.72389E-01   -0.34176E+00 12968   0.708E-02    0.736E-01
RMM:  31    -0.587532583172E+03    0.13945E+00   -0.14698E+00 10547   0.469E-02    0.176E-02
RMM:  32    -0.587546407513E+03   -0.13824E-01    0.18278E-02 12962   0.364E-03    0.231E-01
RMM:  33    -0.587653817051E+03   -0.10741E+00   -0.12470E+00  8180   0.277E-02    0.363E-01
RMM:  34    -0.587532324366E+03    0.12149E+00   -0.12518E+00 11438   0.333E-02    0.146E-02
RMM:  35    -0.587541049603E+03   -0.87252E-02   -0.33109E-03 12535   0.209E-03    0.344E-01
RMM:  36    -0.587532005936E+03    0.90437E-02   -0.24560E+00 10142   0.493E-02    0.210E-02
RMM:  37    -0.587531567446E+03    0.43849E-03    0.91762E-02 11331  -0.413E-04    0.263E-02
RMM:  38    -0.587532354690E+03   -0.78724E-03    0.22410E-01  7833  -0.308E-03    0.151E-02
RMM:  39    -0.587531255745E+03    0.10989E-02    0.16175E-02  8102  -0.183E-04    0.187E-02
RMM:  40    -0.587531961954E+03   -0.70621E-03    0.57035E-02  7856  -0.127E-03    0.205E-02
RMM:  41    -0.587531672437E+03    0.28952E-03    0.93380E-02  8012  -0.189E-03    0.305E-02
RMM:  42    -0.587549537739E+03   -0.17865E-01   -0.26829E-01  8059   0.431E-03    0.280E-01
RMM:  43    -0.587532639159E+03    0.16899E-01   -0.37304E+00  9955   0.527E-02    0.141E-02
RMM:  44    -0.587532453240E+03    0.18592E-03    0.91034E-03  9389   0.112E-03    0.156E-02
RMM:  45    -0.587532265572E+03    0.18767E-03    0.15910E-02  7838  -0.540E-05    0.165E-02
RMM:  46    -0.587532184580E+03    0.80992E-04    0.73655E-02  7726  -0.889E-04    0.778E-02
RMM:  47    -0.587529982445E+03    0.22021E-02   -0.95437E-01  7996   0.132E-02    0.189E-02
RMM:  48    -0.587532270294E+03   -0.22878E-02    0.57505E-02  8017  -0.766E-04    0.186E-02
RMM:  49    -0.587562915852E+03   -0.30646E-01    0.52333E-02  8029  -0.777E-04    0.646E-01
RMM:  50    -0.587619188041E+03   -0.56272E-01   -0.19238E-02 12966   0.171E-02    0.730E-01
RMM:  51    -0.587579568118E+03    0.39620E-01   -0.10341E-02 12655   0.171E-02    0.732E-01
RMM:  52    -0.587529727607E+03    0.49841E-01   -0.67309E+00 12401   0.114E-01    0.408E-02
RMM:  53    -0.587532410826E+03   -0.26832E-02    0.37866E-01 12987  -0.338E-03    0.179E-02
RMM:  54    -0.587531540741E+03    0.87009E-03    0.16844E-02 11877   0.106E-03    0.187E-02
RMM:  55    -0.587532099959E+03   -0.55922E-03    0.67004E-02  7784  -0.110E-03    0.179E-02
RMM:  56    -0.587524503345E+03    0.75966E-02    0.77126E-02  8134  -0.130E-03    0.299E-02
RMM:  57    -0.587532532708E+03   -0.80294E-02    0.65494E-02  8078  -0.754E-04    0.154E-02
RMM:  58    -0.587532225828E+03    0.30688E-03    0.52784E-02  8074  -0.159E-04    0.161E-02
RMM:  59    -0.587531130073E+03    0.10958E-02    0.47917E-02  8062  -0.636E-04    0.324E-02
RMM:  60    -0.587532445836E+03   -0.13158E-02    0.40439E-01  8002  -0.553E-03    0.141E-02
RMM:  61    -0.587606980551E+03   -0.74535E-01    0.23992E-02  8075  -0.407E-04    0.698E-01
RMM:  62    -0.587532738603E+03    0.74242E-01   -0.13822E+00 12957   0.469E-02    0.128E-01
RMM:  63    -0.587529949724E+03    0.27889E-02   -0.14960E+00 12940   0.232E-02    0.194E-02
RMM:  64    -0.587532380560E+03   -0.24308E-02    0.61356E-02 12472   0.813E-04    0.759E-02
RMM:  65    -0.587538069915E+03   -0.56894E-02    0.61158E-02  8036   0.433E-04    0.232E-02
RMM:  66    -0.587532285911E+03    0.57840E-02   -0.30321E-01  8392   0.705E-03    0.158E-02
RMM:  67    -0.587532610845E+03   -0.32493E-03    0.58053E-02  8034  -0.422E-04    0.122E-02
RMM:  68    -0.587532130221E+03    0.48062E-03    0.15457E-02  8121   0.204E-04    0.182E-02
RMM:  69    -0.587531677418E+03    0.45280E-03    0.13556E-01  7963  -0.204E-03    0.172E-02
RMM:  70    -0.587670387763E+03   -0.13871E+00   -0.67562E-02  8080   0.382E-03    0.194E-01
RMM:  71    -0.587637283053E+03    0.33105E-01   -0.22443E+00 12425   0.524E-02    0.200E-01
RMM:  72    -0.587532204824E+03    0.10508E+00   -0.32677E+00  8396   0.626E-02    0.171E-02
RMM:  73    -0.587532117407E+03    0.87416E-04    0.78130E-02 12440   0.659E-04    0.149E-02
RMM:  74    -0.587530966036E+03    0.11514E-02    0.51835E-02  7919  -0.488E-04    0.210E-02
RMM:  75    -0.587531733204E+03   -0.76717E-03    0.85484E-02  8000  -0.208E-03    0.191E-02
RMM:  76    -0.587533635044E+03   -0.19018E-02    0.46374E-02  8039  -0.115E-03    0.126E-01
RMM:  77    -0.587532615892E+03    0.10192E-02   -0.75253E-01  8414   0.162E-02    0.125E-02
RMM:  78    -0.587531645908E+03    0.96998E-03    0.29306E-02  8098   0.299E-04    0.215E-02
RMM:  79    -0.587545042453E+03   -0.13397E-01    0.85178E-02  7961  -0.173E-03    0.206E-01
RMM:  80    -0.587541268857E+03    0.37736E-02   -0.44499E+00  9785   0.648E-02    0.294E-01
RMM:  81    -0.587531704158E+03    0.95647E-02   -0.12124E+00 10695   0.292E-02    0.225E-02
RMM:  82    -0.587531368431E+03    0.33573E-03    0.18744E-01  9283  -0.197E-03    0.118E-02
RMM:  83    -0.587532480171E+03   -0.11117E-02    0.21595E-02  7905   0.181E-04    0.124E-02
RMM:  84    -0.587531196754E+03    0.12834E-02    0.12305E-02  8064  -0.154E-04    0.207E-02
RMM:  85    -0.587531370037E+03   -0.17328E-03    0.67971E-02  7806  -0.178E-03    0.189E-02
RMM:  86    -0.587532641236E+03   -0.12712E-02    0.10791E-01  7025  -0.210E-03    0.119E-02
RMM:  87    -0.587530622456E+03    0.20188E-02    0.16529E-02  7692  -0.119E-04    0.331E-02
RMM:  88    -0.587530652848E+03   -0.30393E-04   -0.92434E-01  8006   0.127E-02    0.172E-02
RMM:  89    -0.587530154287E+03    0.49856E-03   -0.40608E-01  7916   0.598E-03    0.385E-02
RMM:  90    -0.587545523975E+03   -0.15370E-01    0.34299E-01  7987  -0.543E-03    0.106E-01
RMM:  91    -0.587531697724E+03    0.13826E-01   -0.11438E+00 10422   0.333E-02    0.215E-02
RMM:  92    -0.587579162119E+03   -0.47464E-01    0.40877E-02  9233   0.543E-05    0.566E-01
RMM:  93    -0.587528985258E+03    0.50177E-01   -0.30302E+00 12946   0.688E-02    0.653E-02
RMM:  94    -0.587591403003E+03   -0.62418E-01   -0.14609E+00 12900   0.229E-02    0.690E-01
RMM:  95    -0.587531660363E+03    0.59743E-01   -0.11299E+00 12949   0.423E-02    0.257E-02
RMM:  96    -0.587532526711E+03   -0.86635E-03   -0.39350E-01 12974   0.135E-02    0.162E-02
RMM:  97    -0.587532544255E+03   -0.17544E-04    0.34115E-02 12109   0.936E-04    0.157E-02
RMM:  98    -0.587529440256E+03    0.31040E-02    0.33359E-02  8146   0.289E-04    0.210E-02
RMM:  99    -0.587583086751E+03   -0.53646E-01    0.69425E-02  8027  -0.859E-04    0.551E-01
RMM: 100    -0.587530472507E+03    0.52614E-01   -0.75756E+00 12999   0.130E-01    0.262E-02
RMM: 101    -0.587530232635E+03    0.23987E-03    0.24346E-01 12953  -0.183E-03    0.344E-02
RMM: 102    -0.587529361920E+03    0.87072E-03    0.37145E-01  8127  -0.524E-03    0.193E-02
RMM: 103    -0.587532156376E+03   -0.27945E-02   -0.19266E-01  8154   0.261E-03    0.778E-02
RMM: 104    -0.587532206509E+03   -0.50133E-04   -0.17633E+00  7962   0.250E-02    0.149E-02
RMM: 105    -0.587529467956E+03    0.27386E-02    0.11186E-01  7951  -0.146E-03    0.261E-02
RMM: 106    -0.587530905821E+03   -0.14379E-02    0.20139E-01  8019  -0.327E-03    0.155E-02
RMM: 107    -0.587537107101E+03   -0.62013E-02    0.46297E-02  8032  -0.803E-04    0.269E-01
RMM: 108    -0.587666943068E+03   -0.12984E+00   -0.11652E-01 11514   0.886E-03    0.103E+00
RMM: 109    -0.587531246124E+03    0.13570E+00   -0.52469E+00 13005   0.124E-01    0.170E-02
RMM: 110    -0.587532018905E+03   -0.77278E-03    0.21693E-02 12966   0.418E-03    0.185E-02
RMM: 111    -0.587532579038E+03   -0.56013E-03    0.77468E-02 10441  -0.338E-04    0.928E-03
RMM: 112    -0.587532543366E+03    0.35672E-04   -0.42061E-02  7657   0.139E-03    0.130E-02
RMM: 113    -0.587532652948E+03   -0.10958E-03    0.38637E-02  8166  -0.321E-04    0.112E-02
RMM: 114    -0.587573348970E+03   -0.40696E-01    0.14117E-02  7852   0.759E-05    0.330E-01
RMM: 115    -0.587532594747E+03    0.40754E-01   -0.72780E+00 10494   0.105E-01    0.115E-02
RMM: 116    -0.587529724806E+03    0.28699E-02    0.11826E-02  9075   0.808E-04    0.285E-02
RMM: 117    -0.587566373167E+03   -0.36648E-01    0.24045E-01  7933  -0.360E-03    0.159E-01
RMM: 118    -0.587532577225E+03    0.33796E-01   -0.26060E+00 11804   0.481E-02    0.543E-02
RMM: 119    -0.587544047361E+03   -0.11470E-01    0.24278E-02 10577   0.180E-03    0.225E-01
RMM: 120    -0.587531116742E+03    0.12931E-01   -0.99087E-02  9497   0.887E-03
   3 F= -.58753112E+03 E0= -.58748886E+03  d E =-.476932E+00  mag=    62.5870
       N       E                     dE             d eps       ncg     rms          rms(c)
DAV:   1    -0.587532749036E+03    0.11298E-01   -0.67491E-02 13812   0.453E-01    0.148E-01
RMM:   2    -0.587535192259E+03   -0.24432E-02   -0.42585E-03 13275   0.119E-01    0.830E-01
RMM:   3    -0.587533135651E+03    0.20566E-02   -0.13030E-03 13227   0.587E-02    0.207E-01
RMM:   4    -0.587533230297E+03   -0.94647E-04   -0.31181E-04 13594   0.296E-02    0.277E-01
RMM:   5    -0.587533117178E+03    0.11312E-03   -0.12263E-04 13080   0.190E-02    0.188E-01
RMM:   6    -0.587533006373E+03    0.11081E-03   -0.56003E-05 12963   0.142E-02    0.435E-02
RMM:   7    -0.587533017057E+03   -0.10684E-04    0.12222E-05 13255   0.801E-03    0.791E-02
RMM:   8    -0.587532990800E+03    0.26257E-04    0.66564E-05 13003   0.650E-03    0.268E-02
RMM:   9    -0.587532983707E+03    0.70928E-05    0.21026E-04 12944   0.545E-03    0.444E-02
RMM:  10    -0.587532642169E+03    0.34154E-03    0.80027E-04 13006   0.453E-03    0.249E-02
RMM:  11    -0.587532292977E+03    0.34919E-03    0.94309E-03 13160   0.174E-03    0.754E-03
RMM:  12    -0.587545004711E+03   -0.12712E-01    0.21996E-02  9616  -0.979E-06    0.222E-01
RMM:  13    -0.587731864397E+03   -0.18686E+00   -0.15652E-01 11933   0.136E-02    0.508E-01
RMM:  14    -0.588275713031E+03   -0.54385E+00   -0.40098E+00 13004   0.978E-02    0.192E+00
RMM:  15    -0.587884346698E+03    0.39137E+00   -0.12088E+01 13000   0.296E-01    0.682E-01
RMM:  16    -0.587685760706E+03    0.19859E+00   -0.71929E+00 12989   0.149E-01    0.632E-01
RMM:  17    -0.587575509064E+03    0.11025E+00   -0.63905E+00 13027   0.118E-01    0.576E-02
RMM:  18    -0.587551199871E+03    0.24309E-01   -0.65215E-01 13006   0.162E-02    0.146E-01
RMM:  19    -0.587550235603E+03    0.96427E-03   -0.25850E+00 13108   0.422E-02    0.293E-02
RMM:  20    -0.587531713842E+03    0.18522E-01   -0.32381E-01 12882   0.861E-03    0.299E-02
RMM:  21    -0.587603673886E+03   -0.71960E-01    0.21408E-01 12927  -0.144E-03    0.536E-01
RMM:  22    -0.587564352397E+03    0.39321E-01   -0.12035E+01 13024   0.171E-01    0.346E-01
RMM:  23    -0.587531305635E+03    0.33047E-01   -0.29777E+00 12572   0.599E-02    0.374E-02
RMM:  24    -0.587532256383E+03   -0.95075E-03   -0.39071E-01 12962   0.859E-03    0.271E-02
RMM:  25    -0.587532895286E+03   -0.63890E-03   -0.38296E-01 11296   0.890E-03    0.944E-03
RMM:  26    -0.587755943546E+03   -0.22305E+00    0.14331E-02 10585   0.943E-04    0.720E-01
RMM:  27    -0.587679398740E+03    0.76545E-01   -0.70673E+00 12975   0.125E-01    0.221E-01
RMM:  28    -0.587538650548E+03    0.14075E+00   -0.27248E-01 12948   0.142E-02    0.781E-02
RMM:  29    -0.587531662210E+03    0.69883E-02   -0.12559E+00 11858   0.245E-02    0.152E-02
RMM:  30    -0.587531397435E+03    0.26478E-03    0.16819E-01 12525  -0.104E-03    0.303E-02
RMM:  31    -0.587531286149E+03    0.11129E-03    0.28378E-01  8463  -0.326E-03    0.609E-02
RMM:  32    -0.587529672782E+03    0.16134E-02    0.41943E-02  7891  -0.166E-04    0.237E-02
RMM:  33    -0.587532526664E+03   -0.28539E-02    0.31464E-01  8114  -0.402E-03    0.911E-03
RMM:  34    -0.587532620188E+03   -0.93524E-04    0.66299E-02  7979  -0.106E-03    0.479E-02
RMM:  35    -0.587532021975E+03    0.59821E-03   -0.16629E-01  8000   0.503E-03    0.142E-02
RMM:  36    -0.587531701124E+03    0.32085E-03    0.48550E-02  8055  -0.802E-04    0.123E-02
RMM:  37    -0.587537386274E+03   -0.56852E-02   -0.17365E-01  7891   0.303E-03    0.272E-02
RMM:  38    -0.587532800698E+03    0.45856E-02   -0.27021E-01  8045   0.646E-03    0.564E-03
RMM:  39    -0.587532964487E+03   -0.16379E-03    0.29175E-02  7944  -0.309E-04    0.415E-03
RMM:  40    -0.587532658249E+03    0.30624E-03    0.78431E-03  7989   0.580E-05    0.768E-03
RMM:  41    -0.587533338573E+03   -0.68032E-03    0.62752E-02  7056  -0.101E-03    0.396E-02
RMM:  42    -0.587575674536E+03   -0.42336E-01   -0.53832E-03  7991   0.193E-03    0.500E-01
RMM:  43    -0.587530432848E+03    0.45242E-01   -0.31377E+00 12912   0.640E-02    0.283E-02
RMM:  44    -0.587527950910E+03    0.24819E-02    0.41933E-01 12814  -0.419E-03    0.187E-02
RMM:  45    -0.587679174055E+03   -0.15122E+00    0.67541E-02  7685  -0.120E-03    0.266E-01
RMM:  46    -0.587541410641E+03    0.13776E+00   -0.55204E+00 11093   0.806E-02    0.100E-01
RMM:  47    -0.587639761120E+03   -0.98350E-01    0.11495E-02 10320   0.317E-03    0.367E-01
RMM:  48    -0.587704734990E+03   -0.64974E-01   -0.32849E+00 12330   0.780E-02    0.209E-01
RMM:  49    -0.587536283743E+03    0.16845E+00   -0.36811E+00  8696   0.667E-02    0.161E-01
RMM:  50    -0.587532719217E+03    0.35645E-02   -0.13385E+00 11365   0.233E-02    0.250E-02
RMM:  51    -0.587525606544E+03    0.71127E-02   -0.22651E-01  8831   0.568E-03    0.410E-02
RMM:  52    -0.587670122939E+03   -0.14452E+00    0.15656E-01  8137  -0.266E-03    0.341E-01
RMM:  53    -0.587530559704E+03    0.13956E+00   -0.67454E-01 12804   0.343E-02    0.232E-02
RMM:  54    -0.587532208616E+03   -0.16489E-02   -0.12209E-01 12807   0.533E-03    0.188E-02
RMM:  55    -0.587532622151E+03   -0.41353E-03    0.13168E-01  8736  -0.124E-03    0.609E-03
RMM:  56    -0.587532092195E+03    0.52996E-03    0.36037E-02  7983  -0.201E-04    0.128E-02
RMM:  57    -0.587532700633E+03   -0.60844E-03    0.76097E-02  8126  -0.141E-03    0.370E-03
RMM:  58    -0.587533421511E+03   -0.72088E-03   -0.13246E-02  7933   0.778E-04    0.888E-02
RMM:  59    -0.587532746486E+03    0.67502E-03   -0.10196E+00  8055   0.159E-02    0.510E-03
RMM:  60    -0.587532675355E+03    0.71131E-04    0.29792E-02  8001  -0.145E-04    0.152E-01
RMM:  61    -0.587532636696E+03    0.38660E-04   -0.10688E+00  8395   0.250E-02    0.689E-03
RMM:  62    -0.587541883515E+03   -0.92468E-02    0.99719E-02  8360  -0.551E-04    0.977E-02
RMM:  63    -0.587537035365E+03    0.48481E-02   -0.58804E-02  8889   0.638E-03    0.689E-02
RMM:  64    -0.587532953775E+03    0.40816E-02   -0.88733E-01  7932   0.175E-02    0.452E-03
RMM:  65    -0.587530126185E+03    0.28276E-02    0.10039E-02  8330   0.716E-04    0.230E-02
RMM:  66    -0.587532028926E+03   -0.19027E-02    0.13560E-01  7973  -0.223E-03    0.178E-02
RMM:  67    -0.587531182833E+03    0.84609E-03    0.11234E-01  8015  -0.183E-03    0.211E-02
RMM:  68    -0.587532805723E+03   -0.16229E-02    0.97615E-02  7976  -0.225E-03    0.817E-02
RMM:  69    -0.587532653320E+03    0.15240E-03   -0.51324E-01  8046   0.989E-03    0.697E-03
RMM:  70    -0.587543247503E+03   -0.10594E-01    0.88343E-02  7983  -0.988E-04    0.155E-01
RMM:  71    -0.587617854636E+03   -0.74607E-01   -0.14633E-01  8350   0.973E-03    0.196E-01
RMM:  72    -0.587544722431E+03    0.73132E-01   -0.26228E-01 11963   0.195E-02    0.206E-01
RMM:  73    -0.587532834232E+03    0.11888E-01   -0.35995E+00  9539   0.595E-02    0.513E-03
RMM:  74    -0.587531820795E+03    0.10134E-02    0.33550E-02  9647   0.652E-04    0.185E-02
RMM:  75    -0.587608020799E+03   -0.76200E-01   -0.13278E-01  7879   0.490E-03    0.495E-01
RMM:  76    -0.587532857522E+03    0.75163E-01   -0.10899E+01 12462   0.159E-01    0.552E-03
RMM:  77    -0.587531776443E+03    0.10811E-02    0.21619E-02 12217   0.123E-03    0.145E-02
RMM:  78    -0.587531435373E+03    0.34107E-03    0.90975E-02  7768  -0.180E-03    0.158E-02
RMM:  79    -0.587531524118E+03   -0.88745E-04    0.22954E-01  8132  -0.334E-03    0.270E-02
RMM:  80    -0.587531933362E+03   -0.40924E-03    0.15926E-01  7753  -0.311E-03    0.106E-02
RMM:  81    -0.587532153441E+03   -0.22008E-03    0.17884E-01  7670  -0.250E-03    0.182E-02
RMM:  82    -0.587649002501E+03   -0.11685E+00   -0.29208E-02  8047   0.224E-03    0.165E-01
RMM:  83    -0.587691435579E+03   -0.42433E-01    0.11934E-01  8957   0.124E-03    0.180E-01
RMM:  84    -0.587538695859E+03    0.15274E+00   -0.35204E+00  7988   0.580E-02    0.905E-02
RMM:  85    -0.587530908461E+03    0.77874E-02   -0.88076E-02  8172   0.103E-02    0.260E-02
RMM:  86    -0.587531037294E+03   -0.12883E-03    0.51044E-02  8893  -0.604E-04    0.523E-02
RMM:  87    -0.587531527553E+03   -0.49026E-03   -0.65758E-01  7970   0.982E-03    0.176E-02
RMM:  88    -0.587536943202E+03   -0.54156E-02    0.25644E-01  8007  -0.331E-03    0.195E-01
RMM:  89    -0.587531774502E+03    0.51687E-02   -0.11602E+00  9458   0.289E-02    0.173E-01
RMM:  90    -0.587533992684E+03   -0.22182E-02   -0.33660E-01  8012   0.114E-02    0.972E-02
RMM:  91    -0.587528721684E+03    0.52710E-02   -0.12265E+00  8021   0.174E-02    0.278E-02
RMM:  92    -0.587532323103E+03   -0.36014E-02    0.49346E-02  8356  -0.676E-04    0.103E-02
RMM:  93    -0.587527505518E+03    0.48176E-02    0.13364E-01  7968  -0.154E-03    0.325E-02
RMM:  94    -0.587531555873E+03   -0.40504E-02    0.18165E-01  8035  -0.288E-03    0.487E-03
RMM:  95    -0.587654373899E+03   -0.12282E+00    0.14970E-02  7954  -0.113E-04    0.351E-01
RMM:  96    -0.587532042655E+03    0.12233E+00   -0.62615E+00 12180   0.106E-01    0.161E-02
RMM:  97    -0.587532500884E+03   -0.45823E-03    0.77746E-02 11124  -0.119E-04    0.932E-03
RMM:  98    -0.587531166524E+03    0.13344E-02    0.67984E-02  7784  -0.807E-04    0.278E-02
RMM:  99    -0.587530722059E+03    0.44447E-03    0.24561E-01  8089  -0.380E-03    0.192E-02
RMM: 100    -0.587534185105E+03   -0.34630E-02    0.33058E-01  7959  -0.483E-03    0.138E-01
RMM: 101    -0.587540618306E+03   -0.64332E-02   -0.31908E-01  8355   0.117E-02    0.330E-01
RMM: 102    -0.587531366288E+03    0.92520E-02   -0.21900E+00 10337   0.439E-02    0.154E-02
RMM: 103    -0.587691489352E+03   -0.16012E+00    0.38074E-02 11074   0.561E-04    0.469E-01
RMM: 104    -0.587532943463E+03    0.15855E+00   -0.91597E-01 12738   0.304E-02    0.717E-03
RMM: 105    -0.587618196707E+03   -0.85253E-01    0.83554E-03 12838   0.214E-03    0.337E-01
RMM: 106    -0.587533592658E+03    0.84604E-01   -0.53798E-01  9849   0.220E-02    0.887E-02
RMM: 107    -0.587533244908E+03    0.34775E-03   -0.13468E-01 10011   0.594E-03    0.961E-03
RMM: 108    -0.587531916802E+03    0.13281E-02   -0.70373E-02  8906   0.276E-03    0.149E-02
RMM: 109    -0.587532066341E+03   -0.14954E-03    0.14337E-01  7946  -0.225E-03    0.118E-02
RMM: 110    -0.587741087420E+03   -0.20902E+00    0.97398E-02  8016  -0.159E-03    0.401E-01
RMM: 111    -0.587539706161E+03    0.20138E+00   -0.54233E-01 12537   0.293E-02    0.159E-01
RMM: 112    -0.587530981744E+03    0.87244E-02   -0.17860E+00 10043   0.326E-02    0.158E-02
RMM: 113    -0.587532077876E+03   -0.10961E-02    0.11860E-01  9199  -0.125E-03    0.103E-02
RMM: 114    -0.587532615495E+03   -0.53762E-03    0.93022E-02  7883  -0.127E-03    0.382E-03
RMM: 115    -0.587530398474E+03    0.22170E-02    0.17695E-02  8041  -0.555E-05    0.233E-02
RMM: 116    -0.587585759280E+03   -0.55361E-01    0.32081E-01  7934  -0.569E-03    0.195E-01
RMM: 117    -0.587577009015E+03    0.87503E-02   -0.37190E-01 12088   0.162E-02    0.259E-01
RMM: 118    -0.587660492090E+03   -0.83483E-01   -0.23731E+00  8996   0.553E-02    0.169E-01
RMM: 119    -0.587532108300E+03    0.12838E+00   -0.67326E-01  8773   0.246E-02    0.881E-03
RMM: 120    -0.587527648630E+03    0.44597E-02    0.10493E-01 10527  -0.572E-04
   4 F= -.58752765E+03 E0= -.58748802E+03  d E =-.473464E+00  mag=    62.5922
       N       E                     dE             d eps       ncg     rms          rms(c)
DAV:   1    -0.587560967107E+03   -0.28859E-01   -0.14965E+01 13350   0.404E+00    0.122E+00
RMM:   2    -0.587883047273E+03   -0.32208E+00   -0.29384E-01 12960   0.110E+00    0.106E+01
RMM:   3    -0.587584549987E+03    0.29850E+00   -0.80936E-02 12964   0.495E-01    0.140E+00
RMM:   4    -0.587592439480E+03   -0.78895E-02   -0.15133E-02 13200   0.201E-01    0.202E+00
RMM:   5    -0.587582336071E+03    0.10103E-01   -0.52651E-03 13180   0.123E-01    0.637E-01
RMM:   6    -0.587581392887E+03    0.94318E-03   -0.17921E-03 13265   0.698E-02    0.422E-01
RMM:   7    -0.587581368419E+03    0.24468E-04   -0.15769E-03 13046   0.630E-02    0.595E-01
RMM:   8    -0.587580345756E+03    0.10227E-02   -0.11929E-03 12994   0.578E-02    0.272E-01
RMM:   9    -0.587580445819E+03   -0.10006E-03   -0.30356E-04 13095   0.340E-02    0.309E-01
RMM:  10    -0.587580094567E+03    0.35125E-03    0.22211E-04 13025   0.252E-02    0.431E-02
RMM:  11    -0.587579321799E+03    0.77277E-03    0.96906E-04 13910   0.866E-03    0.581E-02
RMM:  12    -0.587595349097E+03   -0.16027E-01    0.19671E-02 13012   0.453E-03    0.249E-01
RMM:  13    -0.587624896286E+03   -0.29547E-01   -0.87569E-01 14659   0.276E-02    0.230E-01
RMM:  14    -0.587603045153E+03    0.21851E-01   -0.24734E-01 12518   0.132E-02    0.250E-01
RMM:  15    -0.587597033173E+03    0.60120E-02   -0.12534E+00 12178   0.397E-02    0.171E-01
RMM:  16    -0.587659039018E+03   -0.62006E-01   -0.73394E-01 10699   0.172E-02    0.339E-01
RMM:  17    -0.587728078510E+03   -0.69039E-01   -0.44365E+00 11182   0.845E-02    0.924E-01
RMM:  18    -0.587683449239E+03    0.44629E-01   -0.77436E+00 12942   0.135E-01    0.716E-01
RMM:  19    -0.587601142739E+03    0.82306E-01   -0.93771E+00 11114   0.147E-01    0.561E-02
RMM:  20    -0.587600385227E+03    0.75751E-03   -0.90284E-01 13019   0.201E-02    0.240E-01
RMM:  21    -0.587578753298E+03    0.21632E-01   -0.23170E+00 13176   0.448E-02    0.392E-02
RMM:  22    -0.587578048478E+03    0.70482E-03   -0.66628E-01 12980   0.139E-02    0.255E-02
RMM:  23    -0.587624369702E+03   -0.46321E-01    0.26489E-01 12806   0.418E-04    0.473E-01
RMM:  24    -0.587682914386E+03   -0.58545E-01   -0.18079E-01 12918   0.107E-02    0.570E-01
RMM:  25    -0.587581658267E+03    0.10126E+00   -0.69446E+00 12495   0.121E-01    0.559E-02
RMM:  26    -0.587576455217E+03    0.52031E-02   -0.23798E-01 12978   0.113E-02    0.224E-02
RMM:  27    -0.587577642890E+03   -0.11877E-02    0.62828E-02 12902   0.182E-03    0.185E-02
RMM:  28    -0.587580072191E+03   -0.24293E-02   -0.15035E-01 11180   0.387E-03    0.719E-03
RMM:  29    -0.587611170607E+03   -0.31098E-01    0.17662E-02  8077   0.300E-04    0.343E-01
RMM:  30    -0.587854259495E+03   -0.24309E+00   -0.54776E+00 12623   0.951E-02    0.551E-01
RMM:  31    -0.587656129119E+03    0.19813E+00   -0.11877E+01 12893   0.184E-01    0.453E-01
RMM:  32    -0.587579948026E+03    0.76181E-01   -0.92264E+00 12755   0.136E-01    0.899E-03
RMM:  33    -0.587578347574E+03    0.16005E-02    0.15358E-02 12073   0.141E-03    0.892E-03
RMM:  34    -0.587577596614E+03    0.75096E-03    0.98100E-02  7917  -0.126E-03    0.247E-02
RMM:  35    -0.587578338548E+03   -0.74193E-03    0.10291E-01  8204  -0.134E-03    0.128E-02
RMM:  36    -0.587578393255E+03   -0.54707E-04    0.91419E-02  7867  -0.146E-03    0.115E-02
RMM:  37    -0.587577086497E+03    0.13068E-02    0.88342E-02  8119  -0.566E-04    0.358E-02
RMM:  38    -0.587637370275E+03   -0.60284E-01    0.47062E-02  8075  -0.191E-03    0.321E-01
RMM:  39    -0.587631014758E+03    0.63555E-02   -0.63263E+00 11954   0.953E-02    0.348E-01
RMM:  40    -0.587593709390E+03    0.37305E-01   -0.57856E-01 12367   0.239E-02    0.311E-01
RMM:  41    -0.587579621516E+03    0.14088E-01   -0.32009E+00  8343   0.480E-02    0.870E-02
RMM:  42    -0.587582550366E+03   -0.29288E-02   -0.67509E-01  9615   0.147E-02    0.877E-02
RMM:  43    -0.587576701481E+03    0.58489E-02   -0.11674E+00  8306   0.243E-02    0.242E-02
RMM:  44    -0.587579341276E+03   -0.26398E-02    0.17452E-01  8169  -0.212E-03    0.679E-02
RMM:  45    -0.587580702457E+03   -0.13612E-02   -0.39008E-01  8023   0.791E-03    0.301E-02
RMM:  46    -0.587578572299E+03    0.21302E-02   -0.27909E-01  8079   0.836E-03    0.618E-03
RMM:  47    -0.587705914509E+03   -0.12734E+00   -0.29718E-03  8046   0.388E-05    0.753E-01
RMM:  48    -0.587681130710E+03    0.24784E-01   -0.47061E+00 12974   0.881E-02    0.727E-01
RMM:  49    -0.587580074600E+03    0.10106E+00   -0.23773E+00 11527   0.584E-02    0.922E-03
RMM:  50    -0.587577233433E+03    0.28412E-02    0.35185E-03 12965   0.355E-03    0.108E-02
RMM:  51    -0.587579511273E+03   -0.22778E-02   -0.19920E-01  8942   0.341E-03    0.158E-02
RMM:  52    -0.587579922434E+03   -0.41116E-03    0.13839E-01  7816  -0.168E-03    0.650E-03
RMM:  53    -0.587684717135E+03   -0.10479E+00    0.38263E-02  8181  -0.222E-04    0.190E-01
RMM:  54    -0.587579535124E+03    0.10518E+00   -0.35310E+00  8366   0.532E-02    0.738E-03
RMM:  55    -0.587579899841E+03   -0.36472E-03    0.40663E-02  8164  -0.454E-05    0.565E-03
RMM:  56    -0.587579532603E+03    0.36724E-03    0.16311E-02  8042  -0.177E-04    0.137E-02
RMM:  57    -0.587580033955E+03   -0.50135E-03    0.10498E-01  7996  -0.162E-03    0.559E-03
RMM:  58    -0.587578261742E+03    0.17722E-02    0.10660E-02  8030   0.107E-04    0.165E-02
RMM:  59    -0.587580956908E+03   -0.26952E-02    0.16066E-01  7954  -0.337E-03    0.895E-02
RMM:  60    -0.587579692786E+03    0.12641E-02   -0.17211E+00  8137   0.252E-02    0.944E-03
RMM:  61    -0.587581706240E+03   -0.20135E-02    0.57874E-02  8004  -0.815E-04    0.758E-02
RMM:  62    -0.587577159522E+03    0.45467E-02   -0.96106E-01  8006   0.166E-02    0.172E-02
RMM:  63    -0.587581272668E+03   -0.41131E-02    0.88831E-02  8064  -0.173E-03    0.719E-02
RMM:  64    -0.587575053256E+03    0.62194E-02   -0.15220E+00  8055   0.220E-02    0.284E-02
RMM:  65    -0.587626940003E+03   -0.51887E-01    0.37924E-01  7993  -0.590E-03    0.542E-01
RMM:  66    -0.587608235841E+03    0.18704E-01   -0.42948E+00 12975   0.996E-02    0.493E-01
RMM:  67    -0.587580895981E+03    0.27340E-01   -0.21827E+00 12182   0.507E-02    0.764E-02
RMM:  68    -0.587579246386E+03    0.16496E-02   -0.17038E-02 12991   0.461E-03    0.208E-02
RMM:  69    -0.587576748776E+03    0.24976E-02    0.21322E-01 12445  -0.125E-03    0.242E-02
RMM:  70    -0.587578960818E+03   -0.22120E-02    0.29351E-01  8000  -0.429E-03    0.208E-02
RMM:  71    -0.587589368962E+03   -0.10408E-01    0.13942E-01  8050  -0.213E-03    0.224E-01
RMM:  72    -0.587579652138E+03    0.97168E-02   -0.10984E+00  9043   0.225E-02    0.954E-03
RMM:  73    -0.587619960647E+03   -0.40309E-01    0.11086E-01  8437  -0.798E-04    0.538E-01
RMM:  74    -0.587660964897E+03   -0.41004E-01   -0.90070E-01 12922   0.345E-02    0.504E-01
RMM:  75    -0.587686148101E+03   -0.25183E-01   -0.26742E+00 11584   0.613E-02    0.443E-01
RMM:  76    -0.587579625079E+03    0.10652E+00   -0.32449E+00  7997   0.635E-02    0.106E-02
RMM:  77    -0.587579975610E+03   -0.35053E-03    0.13070E-02 12958   0.279E-03    0.982E-03
RMM:  78    -0.587579740125E+03    0.23548E-03    0.14437E-02  9561   0.891E-04    0.614E-03
RMM:  79    -0.587578762225E+03    0.97790E-03    0.31249E-02  7895  -0.226E-04    0.161E-02
RMM:  80    -0.587579482802E+03   -0.72058E-03    0.30967E-01  8093  -0.419E-03    0.809E-03
RMM:  81    -0.587578772833E+03    0.70997E-03    0.47604E-02  7936  -0.109E-03    0.111E-02
RMM:  82    -0.587578588554E+03    0.18428E-03    0.98224E-02  8023  -0.227E-03    0.296E-02
RMM:  83    -0.587585922680E+03   -0.73341E-02    0.33547E-01  7980  -0.472E-03    0.270E-02
RMM:  84    -0.587746583133E+03   -0.16066E+00   -0.32702E-01  8063   0.719E-03    0.738E-01
RMM:  85    -0.587579907087E+03    0.16668E+00   -0.99306E+00 12990   0.145E-01    0.870E-03
RMM:  86    -0.587581392853E+03   -0.14858E-02    0.58675E-02 12952   0.215E-03    0.144E-01
RMM:  87    -0.587578764194E+03    0.26287E-02   -0.11925E+00  7841   0.221E-02    0.219E-02
RMM:  88    -0.587609370491E+03   -0.30606E-01    0.31780E-01  8787  -0.355E-03    0.412E-01
RMM:  89    -0.587673082970E+03   -0.63712E-01   -0.45918E+00 12125   0.821E-02    0.464E-01
RMM:  90    -0.587579825447E+03    0.93258E-01   -0.29772E+00 10721   0.660E-02    0.958E-03
RMM:  91    -0.587579136986E+03    0.68846E-03    0.57701E-02 12862   0.135E-03    0.207E-02
RMM:  92    -0.587604783566E+03   -0.25647E-01   -0.24764E-01  7844   0.630E-03    0.347E-01
RMM:  93    -0.587615057340E+03   -0.10274E-01   -0.24113E+00 12328   0.506E-02    0.257E-01
RMM:  94    -0.587578666770E+03    0.36391E-01   -0.23917E-02 12753   0.102E-02    0.173E-02
RMM:  95    -0.587579868292E+03   -0.12015E-02    0.21024E-01 12169  -0.918E-04    0.596E-03
RMM:  96    -0.587579092406E+03    0.77589E-03    0.38022E-02  7743  -0.681E-05    0.141E-02
RMM:  97    -0.587578497970E+03    0.59444E-03    0.78175E-02  8165  -0.157E-03    0.182E-02
RMM:  98    -0.587580376071E+03   -0.18781E-02    0.10400E-01  7961  -0.185E-03    0.384E-02
RMM:  99    -0.587577838515E+03    0.25376E-02   -0.54897E-01  7981   0.113E-02    0.120E-02
RMM: 100    -0.587578071253E+03   -0.23274E-03   -0.12974E-02  8028   0.627E-04    0.312E-02
RMM: 101    -0.587578423174E+03   -0.35192E-03    0.26602E-01  8032  -0.465E-03    0.204E-02
RMM: 102    -0.587579745811E+03   -0.13226E-02    0.17417E-01  7934  -0.338E-03    0.640E-03
RMM: 103    -0.587578402369E+03    0.13434E-02    0.21292E-02  7942  -0.297E-04    0.664E-03
RMM: 104    -0.587577652588E+03    0.74978E-03    0.25973E-02  7740  -0.110E-03    0.158E-02
RMM: 105    -0.587623344461E+03   -0.45692E-01    0.78694E-02  7789  -0.168E-03    0.347E-01
RMM: 106    -0.587599440683E+03    0.23904E-01   -0.44913E+00 12388   0.658E-02    0.286E-01
RMM: 107    -0.587595284581E+03    0.41561E-02   -0.22207E-02 11699   0.652E-03    0.254E-01
RMM: 108    -0.587577453780E+03    0.17831E-01   -0.19583E+00  7970   0.368E-02    0.147E-02
RMM: 109    -0.587577811775E+03   -0.35799E-03    0.72296E-02 10864   0.774E-04    0.282E-02
RMM: 110    -0.587579415178E+03   -0.16034E-02    0.41020E-01  7852  -0.529E-03    0.646E-02
RMM: 111    -0.587577688199E+03    0.17270E-02   -0.68576E-01  8032   0.125E-02    0.230E-02
RMM: 112    -0.587577409365E+03    0.27883E-03    0.10105E-01  8025  -0.210E-03    0.178E-02
RMM: 113    -0.587578889068E+03   -0.14797E-02    0.50563E-02  7958  -0.120E-03    0.168E-02
RMM: 114    -0.587597002445E+03   -0.18113E-01    0.26210E-01  7999  -0.373E-03    0.327E-01
RMM: 115    -0.587577957215E+03    0.19045E-01   -0.46346E+00 12048   0.656E-02    0.523E-02
RMM: 116    -0.587576742225E+03    0.12150E-02   -0.41482E-01 11125   0.101E-02    0.167E-02
RMM: 117    -0.587582266248E+03   -0.55240E-02    0.48525E-02  7805  -0.516E-04    0.877E-02
RMM: 118    -0.587577583118E+03    0.46831E-02   -0.15678E+00  8102   0.242E-02    0.243E-02
RMM: 119    -0.587575550125E+03    0.20330E-02    0.45569E-02  8004  -0.984E-04    0.270E-02
RMM: 120    -0.587576322757E+03   -0.77263E-03   -0.88372E-02  7947   0.762E-04
   5 F= -.58757632E+03 E0= -.58753681E+03  d E =-.486741E-01  mag=    62.5932
       N       E                     dE             d eps       ncg     rms          rms(c)
DAV:   1    -0.587576897506E+03   -0.13474E-02   -0.14701E+01 13290   0.399E+00    0.121E+00
RMM:   2    -0.587889880435E+03   -0.31298E+00   -0.28641E-01 12960   0.109E+00    0.104E+01
RMM:   3    -0.587599789193E+03    0.29009E+00   -0.78867E-02 12963   0.489E-01    0.137E+00
RMM:   4    -0.587607699674E+03   -0.79105E-02   -0.14633E-02 13208   0.198E-01    0.200E+00
RMM:   5    -0.587597792442E+03    0.99072E-02   -0.51518E-03 13158   0.121E-01    0.643E-01
RMM:   6    -0.587596793563E+03    0.99888E-03   -0.17977E-03 13254   0.696E-02    0.410E-01
RMM:   7    -0.587596775337E+03    0.18226E-04   -0.15338E-03 13077   0.625E-02    0.584E-01
RMM:   8    -0.587595794322E+03    0.98102E-03   -0.11301E-03 12996   0.564E-02    0.270E-01
RMM:   9    -0.587595959593E+03   -0.16527E-03   -0.32781E-04 13033   0.358E-02    0.333E-01
RMM:  10    -0.587595533485E+03    0.42611E-03    0.21864E-04 13000   0.275E-02    0.507E-02
RMM:  11    -0.587592087174E+03    0.34463E-02    0.16042E-03 13621   0.103E-02    0.655E-02
RMM:  12    -0.587631636897E+03   -0.39550E-01    0.19868E-02 13177   0.505E-03    0.685E-01
RMM:  13    -0.587749494239E+03   -0.11786E+00   -0.12912E-01 13906   0.160E-02    0.600E-01
RMM:  14    -0.587943995037E+03   -0.19450E+00   -0.25602E+00 13480   0.696E-02    0.117E+00
RMM:  15    -0.587729595483E+03    0.21440E+00   -0.66209E+00 13020   0.156E-01    0.628E-01
RMM:  16    -0.587634614580E+03    0.94981E-01   -0.28938E+00 12980   0.735E-02    0.342E-02
RMM:  17    -0.587669910074E+03   -0.35295E-01    0.53904E-02 13035   0.679E-03    0.523E-01
RMM:  18    -0.587688892664E+03   -0.18983E-01   -0.86331E+00 13131   0.130E-01    0.486E-01
RMM:  19    -0.587628816461E+03    0.60076E-01   -0.93366E+00 12790   0.139E-01    0.383E-02
RMM:  20    -0.587595465963E+03    0.33350E-01   -0.55734E-01 13029   0.141E-02    0.264E-02
RMM:  21    -0.587602288465E+03   -0.68225E-02    0.39129E-02 12972   0.203E-03    0.859E-02
RMM:  22    -0.587592299321E+03    0.99891E-02   -0.11142E+00 10428   0.232E-02    0.416E-02
RMM:  23    -0.587593797250E+03   -0.14979E-02    0.55287E-01 12624  -0.629E-03    0.155E-02
RMM:  24    -0.587640864113E+03   -0.47067E-01    0.34043E-02 11092   0.202E-04    0.602E-01
RMM:  25    -0.587594100003E+03    0.46764E-01   -0.31331E+00 12960   0.732E-02    0.290E-02
RMM:  26    -0.587593298104E+03    0.80190E-03   -0.69453E-02 12976   0.532E-03    0.816E-02
RMM:  27    -0.587697150448E+03   -0.10385E+00   -0.63753E-02  8395   0.554E-03    0.331E-01
RMM:  28    -0.587767362147E+03   -0.70212E-01   -0.61121E+00 10935   0.936E-02    0.700E-01
RMM:  29    -0.587592912326E+03    0.17445E+00   -0.50653E-01 12954   0.298E-02    0.204E-02
RMM:  30    -0.587595154037E+03   -0.22417E-02    0.20230E-01 12970   0.673E-04    0.628E-03
RMM:  31    -0.587595443212E+03   -0.28917E-03    0.12537E-02  8957   0.624E-04    0.414E-03
RMM:  32    -0.587595267386E+03    0.17583E-03    0.24932E-02  7963   0.907E-05    0.141E-02
RMM:  33    -0.587603735918E+03   -0.84685E-02    0.22461E-02  8195   0.227E-04    0.250E-02
RMM:  34    -0.587642722049E+03   -0.38986E-01   -0.34277E-01  7970   0.715E-03    0.625E-01
RMM:  35    -0.587595036520E+03    0.47686E-01   -0.28136E-01 12946   0.248E-02    0.107E-02
RMM:  36    -0.587594930744E+03    0.10578E-03    0.10161E-01 12822   0.631E-04    0.145E-02
RMM:  37    -0.587595008750E+03   -0.78006E-04    0.15373E-01  7795  -0.163E-03    0.458E-03
RMM:  38    -0.587615924592E+03   -0.20916E-01    0.44806E-02  8096  -0.427E-04    0.301E-01
RMM:  39    -0.587594384157E+03    0.21540E-01   -0.42396E+00 10554   0.612E-02    0.150E-01
RMM:  40    -0.587595537522E+03   -0.11534E-02   -0.18555E+00  7810   0.277E-02    0.180E-02
RMM:  41    -0.587629081770E+03   -0.33544E-01    0.13956E-01  9058   0.188E-04    0.154E-01
RMM:  42    -0.587606161455E+03    0.22920E-01   -0.10632E+00 11091   0.296E-02    0.197E-01
RMM:  43    -0.587592590723E+03    0.13571E-01   -0.24377E+00 10136   0.479E-02    0.217E-02
RMM:  44    -0.587593569705E+03   -0.97898E-03    0.31966E-01 10741  -0.422E-03    0.907E-03
RMM:  45    -0.587632641649E+03   -0.39072E-01    0.87451E-02  7839  -0.158E-03    0.406E-01
RMM:  46    -0.587592474115E+03    0.40168E-01   -0.17657E+00 12823   0.457E-02    0.297E-02
RMM:  47    -0.587595160978E+03   -0.26869E-02    0.12397E-01 12560  -0.153E-03    0.913E-03
RMM:  48    -0.587591670048E+03    0.34909E-02    0.23210E-02  7696   0.219E-05    0.119E-02
RMM:  49    -0.587593937025E+03   -0.22670E-02   -0.35448E-02  8143   0.587E-04    0.109E-02
RMM:  50    -0.587595495183E+03   -0.15582E-02    0.11667E-01  7974  -0.997E-04    0.343E-03
RMM:  51    -0.587594492136E+03    0.10030E-02    0.16747E-02  7958  -0.952E-05    0.930E-03
RMM:  52    -0.587656204715E+03   -0.61713E-01    0.76192E-02  7918  -0.155E-03    0.335E-01
RMM:  53    -0.587683540003E+03   -0.27335E-01   -0.72635E+00 12226   0.106E-01    0.776E-01
RMM:  54    -0.587595137257E+03    0.88403E-01   -0.62369E+00 13018   0.103E-01    0.111E-02
RMM:  55    -0.587594463276E+03    0.67398E-03    0.25581E-02 12967   0.277E-03    0.909E-03
RMM:  56    -0.587590792744E+03    0.36705E-02    0.52032E-02  9401  -0.312E-04    0.391E-02
RMM:  57    -0.587634286086E+03   -0.43493E-01    0.33614E-01  8028  -0.602E-03    0.327E-01
RMM:  58    -0.587593119914E+03    0.41166E-01    0.14035E-02 12135   0.225E-03    0.176E-02
RMM:  59    -0.587638568513E+03   -0.45449E-01    0.11142E-01 11171  -0.668E-04    0.605E-01
RMM:  60    -0.587734805053E+03   -0.96237E-01    0.78962E-02 12994   0.108E-02    0.724E-01
RMM:  61    -0.587594847958E+03    0.13996E+00   -0.56199E+00 12610   0.103E-01    0.605E-02
RMM:  62    -0.587595269234E+03   -0.42128E-03   -0.88389E-01 12972   0.166E-02    0.936E-03
RMM:  63    -0.587600467617E+03   -0.51984E-02    0.49075E-02 12489   0.935E-04    0.205E-01
RMM:  64    -0.587591027886E+03    0.94397E-02   -0.28193E+00  7850   0.396E-02    0.277E-02
RMM:  65    -0.587595305331E+03   -0.42774E-02    0.27813E-01  9233  -0.328E-03    0.518E-03
RMM:  66    -0.587590363176E+03    0.49422E-02    0.31496E-02  7845  -0.114E-04    0.323E-02
RMM:  67    -0.587591910908E+03   -0.15477E-02    0.18309E-01  8061  -0.420E-03    0.334E-02
RMM:  68    -0.587609199182E+03   -0.17288E-01    0.42088E-01  8048  -0.686E-03    0.272E-01
RMM:  69    -0.587595153946E+03    0.14045E-01   -0.27218E-01 11081   0.155E-02    0.100E-01
RMM:  70    -0.587594894308E+03    0.25964E-03   -0.42819E-01  8141   0.115E-02    0.683E-03
RMM:  71    -0.587595228477E+03   -0.33417E-03    0.64715E-02  8331  -0.495E-04    0.614E-03
RMM:  72    -0.587602291202E+03   -0.70627E-02    0.10686E-01  8005  -0.101E-03    0.106E-01
RMM:  73    -0.587632386201E+03   -0.30095E-01   -0.39136E-01  8831   0.169E-02    0.228E-01
RMM:  74    -0.587593810716E+03    0.38575E-01   -0.25052E+00  9053   0.584E-02    0.123E-02
RMM:  75    -0.587594411858E+03   -0.60114E-03    0.18772E-01 11421  -0.113E-03    0.210E-02
RMM:  76    -0.587595301003E+03   -0.88914E-03    0.21163E-01  7889  -0.269E-03    0.469E-03
RMM:  77    -0.587593885989E+03    0.14150E-02    0.29540E-02  8071  -0.357E-04    0.140E-02
RMM:  78    -0.587594803500E+03   -0.91751E-03    0.13448E-01  8018  -0.188E-03    0.120E-02
RMM:  79    -0.587595233679E+03   -0.43018E-03    0.14341E-01  7525  -0.205E-03    0.370E-03
RMM:  80    -0.587596356335E+03   -0.11227E-02    0.49021E-02  7954  -0.811E-04    0.173E-01
RMM:  81    -0.587594101523E+03    0.22548E-02   -0.90506E-01  8623   0.200E-02    0.158E-02
RMM:  82    -0.587594694129E+03   -0.59261E-03    0.31535E-01  8260  -0.384E-03    0.117E-02
RMM:  83    -0.587590618146E+03    0.40760E-02    0.58538E-02  7990  -0.990E-04    0.484E-02
RMM:  84    -0.587644722552E+03   -0.54104E-01    0.57997E-01  8008  -0.916E-03    0.404E-01
RMM:  85    -0.587594827258E+03    0.49895E-01   -0.78565E+00 12582   0.114E-01    0.116E-02
RMM:  86    -0.587592961683E+03    0.18656E-02   -0.55802E-02 11079   0.209E-03    0.316E-02
RMM:  87    -0.587595228152E+03   -0.22665E-02   -0.25017E-01  7915   0.526E-03    0.418E-03
RMM:  88    -0.587593215458E+03    0.20127E-02    0.30536E-02  8106  -0.868E-05    0.236E-02
RMM:  89    -0.587593828950E+03   -0.61349E-03    0.19086E-01  7920  -0.325E-03    0.111E-02
RMM:  90    -0.587593561043E+03    0.26791E-03    0.51582E-02  8009  -0.978E-04    0.843E-02
RMM:  91    -0.587604574480E+03   -0.11013E-01   -0.57835E-03  8068   0.345E-03    0.203E-01
RMM:  92    -0.587595418483E+03    0.91560E-02   -0.11779E+00  8786   0.271E-02    0.427E-03
RMM:  93    -0.587595371423E+03    0.47060E-04    0.40045E-02  8639   0.471E-04    0.624E-03
RMM:  94    -0.587620701438E+03   -0.25330E-01    0.15027E-02  7932   0.712E-05    0.305E-01
RMM:  95    -0.587595203320E+03    0.25498E-01   -0.25385E+00 11996   0.506E-02    0.527E-03
RMM:  96    -0.587591001738E+03    0.42016E-02    0.22177E-02 10563   0.976E-04    0.764E-02
RMM:  97    -0.587594836879E+03   -0.38351E-02   -0.12178E+00  7816   0.220E-02    0.678E-03
RMM:  98    -0.587595012777E+03   -0.17590E-03    0.75135E-02  8145  -0.102E-03    0.907E-03
RMM:  99    -0.587594757239E+03    0.25554E-03    0.25800E-02  7917  -0.679E-04    0.646E-03
RMM: 100    -0.587593744031E+03    0.10132E-02    0.76266E-02  7885  -0.155E-03    0.285E-02
RMM: 101    -0.587595500783E+03   -0.17568E-02    0.36504E-01  7925  -0.510E-03    0.232E-03
RMM: 102    -0.587593612026E+03    0.18888E-02    0.83465E-03  8006   0.795E-05    0.310E-02
RMM: 103    -0.587592875850E+03    0.73618E-03    0.28247E-02  7997  -0.103E-03    0.382E-02
RMM: 104    -0.587605280495E+03   -0.12405E-01   -0.48503E-02  7875   0.315E-03    0.228E-01
RMM: 105    -0.587590617873E+03    0.14663E-01   -0.35313E-01  9741   0.163E-02    0.539E-02
RMM: 106    -0.587597647216E+03   -0.70293E-02    0.43059E-01  9833  -0.668E-03    0.201E-02
RMM: 107    -0.587595431774E+03    0.22154E-02   -0.20175E-01  7880   0.482E-03    0.458E-03
RMM: 108    -0.587592237412E+03    0.31944E-02    0.17729E-02  8047   0.688E-05    0.132E-02
RMM: 109    -0.587595160137E+03   -0.29227E-02    0.14723E-01  7964  -0.177E-03    0.775E-03
RMM: 110    -0.587595267935E+03   -0.10780E-03    0.60088E-02  5710  -0.565E-04    0.822E-03
RMM: 111    -0.587593812367E+03    0.14556E-02    0.65653E-02  6269  -0.855E-04    0.698E-03
RMM: 112    -0.587638372731E+03   -0.44560E-01    0.46498E-02  7263  -0.963E-04    0.339E-01
RMM: 113    -0.587618707088E+03    0.19666E-01   -0.26330E+00 11570   0.478E-02    0.390E-01
RMM: 114    -0.587593684796E+03    0.25022E-01    0.10735E-01  9637   0.287E-03    0.297E-02
RMM: 115    -0.587595298973E+03   -0.16142E-02    0.67001E-02 12268  -0.200E-04    0.568E-03
RMM: 116    -0.587593974237E+03    0.13247E-02    0.41344E-02  7793  -0.183E-04    0.840E-03
RMM: 117    -0.587606667912E+03   -0.12694E-01    0.92701E-02  8028  -0.994E-04    0.177E-01
RMM: 118    -0.587804367644E+03   -0.19770E+00   -0.32075E+00  9649   0.529E-02    0.336E-01
RMM: 119    -0.587596650272E+03    0.20772E+00    0.73936E-03 12838   0.889E-03    0.789E-02
RMM: 120    -0.587602567268E+03   -0.59170E-02   -0.60543E-01 11737   0.179E-02
   6 F= -.58760257E+03 E0= -.58755851E+03  d E =-.749186E-01  mag=    62.5926
       N       E                     dE             d eps       ncg     rms          rms(c)
DAV:   1    -0.587597961963E+03   -0.13117E-02   -0.31284E+00 13848   0.160E+00    0.500E-01
RMM:   2    -0.587661017249E+03   -0.63055E-01   -0.45004E-02 12974   0.431E-01    0.496E+00
RMM:   3    -0.587600807206E+03    0.60210E-01   -0.14002E-02 12977   0.207E-01    0.330E-01
RMM:   4    -0.587603115486E+03   -0.23083E-02   -0.22789E-03 13221   0.784E-02    0.854E-01
RMM:   5    -0.587601025714E+03    0.20898E-02   -0.10107E-03 13072   0.534E-02    0.212E-01
RMM:   6    -0.587600953321E+03    0.72393E-04   -0.27206E-04 13379   0.284E-02    0.183E-01
RMM:   7    -0.587600825172E+03    0.12815E-03   -0.18023E-04 13060   0.234E-02    0.151E-01
RMM:   8    -0.587600791795E+03    0.33377E-04   -0.55538E-05 12965   0.212E-02    0.129E-01
RMM:   9    -0.587600744342E+03    0.47453E-04    0.35551E-04 13015   0.142E-02    0.970E-02
RMM:  10    -0.587600545361E+03    0.19898E-03    0.71760E-04 13083   0.913E-03    0.209E-02
RMM:  11    -0.587599467988E+03    0.10774E-02    0.68194E-03 13664   0.337E-03    0.304E-02
RMM:  12    -0.587628146519E+03   -0.28679E-01    0.19103E-02 13050   0.105E-03    0.397E-01
RMM:  13    -0.587697641219E+03   -0.69495E-01   -0.10867E+00 13083   0.412E-02    0.474E-01
RMM:  14    -0.588071512781E+03   -0.37387E+00   -0.16246E+00 12998   0.626E-02    0.155E+00
RMM:  15    -0.587913924244E+03    0.15759E+00   -0.11208E+01 12992   0.278E-01    0.648E-01
RMM:  16    -0.587642919919E+03    0.27100E+00   -0.68413E+00 12975   0.143E-01    0.223E-01
RMM:  17    -0.587667028795E+03   -0.24109E-01   -0.17440E+00 12985   0.452E-02    0.579E-01
RMM:  18    -0.587626515582E+03    0.40513E-01   -0.53452E+00 13026   0.949E-02    0.129E-01
RMM:  19    -0.587749263098E+03   -0.12275E+00   -0.18133E+00 13023   0.306E-02    0.680E-01
RMM:  20    -0.587604290670E+03    0.14497E+00   -0.96949E-01 12998   0.297E-02    0.431E-02
RMM:  21    -0.587598654047E+03    0.56366E-02   -0.20682E-01 13052   0.950E-03    0.332E-02
RMM:  22    -0.587616352337E+03   -0.17698E-01   -0.92199E-02 13002   0.396E-03    0.285E-01
RMM:  23    -0.587628504259E+03   -0.12152E-01   -0.79731E-01 11192   0.257E-02    0.401E-01
RMM:  24    -0.587612262720E+03    0.16242E-01   -0.35009E+00 12727   0.745E-02    0.259E-01
RMM:  25    -0.587603765752E+03    0.84970E-02   -0.11745E-01  9216   0.118E-02    0.357E-02
RMM:  26    -0.587600591390E+03    0.31744E-02   -0.14385E-02 12869   0.419E-03    0.104E-02
RMM:  27    -0.587600695890E+03   -0.10450E-03    0.15370E-02 11655   0.100E-03    0.105E-02
RMM:  28    -0.587600174542E+03    0.52135E-03    0.17621E-02  8901   0.752E-04    0.110E-02
RMM:  29    -0.587600056409E+03    0.11813E-03    0.13287E-01  8099  -0.165E-03    0.148E-02
RMM:  30    -0.587599835289E+03    0.22112E-03    0.11880E-01  8066  -0.184E-03    0.128E-02
RMM:  31    -0.587599238732E+03    0.59656E-03    0.10646E-01  8096  -0.136E-03    0.933E-03
RMM:  32    -0.587599582891E+03   -0.34416E-03    0.17613E-02  7822  -0.140E-04    0.126E-02
RMM:  33    -0.587600375810E+03   -0.79292E-03    0.95927E-02  7284  -0.173E-03    0.787E-03
RMM:  34    -0.587599961222E+03    0.41459E-03    0.95035E-02  8065  -0.130E-03    0.127E-02
RMM:  35    -0.587601502299E+03   -0.15411E-02   -0.11687E-02  7941   0.126E-03    0.827E-02
RMM:  36    -0.587598776428E+03    0.27259E-02   -0.12636E+00  8186   0.199E-02    0.236E-02
RMM:  37    -0.587600372037E+03   -0.15956E-02    0.41727E-01  8031  -0.620E-03    0.643E-03
RMM:  38    -0.587604246036E+03   -0.38740E-02   -0.83756E-02  8029   0.114E-03    0.116E-01
RMM:  39    -0.587606328558E+03   -0.20825E-02   -0.23130E+00  8099   0.316E-02    0.155E-01
RMM:  40    -0.587603811117E+03    0.25174E-02   -0.90739E-02  8162   0.724E-03    0.159E-01
RMM:  41    -0.587599370724E+03    0.44404E-02   -0.62094E-01  8004   0.154E-02    0.151E-02
RMM:  42    -0.587631022873E+03   -0.31652E-01    0.84403E-02  8406  -0.107E-03    0.334E-01
RMM:  43    -0.587623879822E+03    0.71431E-02   -0.12525E+00  9991   0.365E-02    0.307E-01
RMM:  44    -0.587599366201E+03    0.24514E-01   -0.31161E-02  7939   0.631E-03    0.215E-02
RMM:  45    -0.587600571925E+03   -0.12057E-02    0.80848E-02  9647  -0.424E-04    0.582E-03
RMM:  46    -0.587599522280E+03    0.10496E-02    0.53267E-03  7850   0.221E-04    0.611E-03
RMM:  47    -0.587600534826E+03   -0.10125E-02    0.69975E-02  8035  -0.113E-03    0.369E-03
RMM:  48    -0.587600509278E+03    0.25547E-04    0.32622E-02  8035  -0.451E-04    0.649E-03
RMM:  49    -0.587598447118E+03    0.20622E-02    0.76706E-02  6185  -0.106E-03    0.195E-02
RMM:  50    -0.587600723202E+03   -0.22761E-02    0.22481E-01  8031  -0.433E-03    0.288E-03
RMM:  51    -0.587616364547E+03   -0.15641E-01    0.57211E-03  7963   0.959E-05    0.198E-01
RMM:  52    -0.587615622526E+03    0.74202E-03   -0.40021E+00  9584   0.585E-02    0.339E-01
RMM:  53    -0.587653953084E+03   -0.38331E-01   -0.13249E+00 12352   0.372E-02    0.454E-01
RMM:  54    -0.587597281467E+03    0.56672E-01   -0.29441E+00 11020   0.544E-02    0.405E-02
RMM:  55    -0.587598280655E+03   -0.99919E-03    0.27869E-01 12860  -0.289E-03    0.503E-02
RMM:  56    -0.587609477686E+03   -0.11197E-01    0.60246E-02  7759   0.379E-04    0.161E-01
RMM:  57    -0.587620527956E+03   -0.11050E-01   -0.38059E-01  9109   0.938E-03    0.275E-01
RMM:  58    -0.587599636835E+03    0.20891E-01   -0.20688E+00  9936   0.391E-02    0.216E-02
RMM:  59    -0.587599319438E+03    0.31740E-03    0.93137E-02 10848  -0.102E-03    0.725E-03
RMM:  60    -0.587599580494E+03   -0.26106E-03    0.32715E-02  7960   0.150E-05    0.743E-03
RMM:  61    -0.587597937235E+03    0.16433E-02    0.57484E-02  8023  -0.910E-04    0.940E-02
RMM:  62    -0.587634533569E+03   -0.36596E-01   -0.17961E+00  8216   0.265E-02    0.191E-01
RMM:  63    -0.587602989811E+03    0.31544E-01   -0.62808E-01 12534   0.187E-02    0.616E-02
RMM:  64    -0.587607957558E+03   -0.49677E-02   -0.68416E-01 11216   0.147E-02    0.154E-01
RMM:  65    -0.587638294067E+03   -0.30337E-01   -0.22764E+00  7833   0.367E-02    0.169E-01
RMM:  66    -0.587600655859E+03    0.37638E-01    0.18573E-02 11147   0.160E-03    0.517E-03
RMM:  67    -0.587601402149E+03   -0.74629E-03    0.90477E-03 11623   0.164E-03    0.377E-02
RMM:  68    -0.587772156736E+03   -0.17075E+00   -0.49469E-01  7748   0.101E-02    0.186E-01
RMM:  69    -0.587829776094E+03   -0.57619E-01   -0.46385E-01 11940   0.261E-02    0.205E-01
RMM:  70    -0.587600581686E+03    0.22919E+00   -0.33757E+00  8521   0.632E-02    0.804E-03
RMM:  71    -0.587770066066E+03   -0.16948E+00    0.18321E-02 12330   0.192E-03    0.336E-01
RMM:  72    -0.587600037038E+03    0.17003E+00   -0.69726E+00 11826   0.113E-01    0.152E-02
RMM:  73    -0.587600658807E+03   -0.62177E-03    0.16352E-02 12185   0.150E-03    0.519E-03
RMM:  74    -0.587605120047E+03   -0.44612E-02    0.21702E-02  7802   0.363E-04    0.184E-01
RMM:  75    -0.587599443952E+03    0.56761E-02   -0.23438E+00  8960   0.335E-02    0.123E-02
RMM:  76    -0.587600655239E+03   -0.12113E-02    0.90362E-02  8531  -0.672E-04    0.424E-03
RMM:  77    -0.587599998639E+03    0.65660E-03    0.36111E-02  7931   0.145E-04    0.181E-02
RMM:  78    -0.587598143268E+03    0.18554E-02    0.19280E-01  8013  -0.241E-03    0.334E-02
RMM:  79    -0.587659738947E+03   -0.61596E-01   -0.16704E-01  8001   0.428E-03    0.499E-01
RMM:  80    -0.587656258222E+03    0.34807E-02   -0.29805E+00 12937   0.663E-02    0.322E-01
RMM:  81    -0.587600007816E+03    0.56250E-01   -0.45698E+00 12820   0.852E-02    0.129E-02
RMM:  82    -0.587597378075E+03    0.26297E-02    0.79399E-02 12356   0.698E-04    0.407E-02
RMM:  83    -0.587600408694E+03   -0.30306E-02    0.36321E-01  7781  -0.566E-03    0.621E-03
RMM:  84    -0.587600613783E+03   -0.20509E-03    0.73927E-02  8158  -0.905E-04    0.249E-03
RMM:  85    -0.587600374890E+03    0.23889E-03    0.12912E-02  7851  -0.112E-04    0.444E-03
RMM:  86    -0.587600325594E+03    0.49297E-04    0.30097E-02  7826  -0.590E-04    0.417E-03
RMM:  87    -0.587600331708E+03   -0.61145E-05    0.32181E-02  6523  -0.736E-04    0.719E-03
RMM:  88    -0.587600632086E+03   -0.30038E-03    0.11700E-01  4563  -0.172E-03    0.258E-03
RMM:  89    -0.587599086285E+03    0.15458E-02    0.11169E-02  5057  -0.179E-04    0.146E-02
RMM:  90    -0.587599240031E+03   -0.15375E-03    0.24009E-01  5676  -0.353E-03    0.212E-02
RMM:  91    -0.587600433109E+03   -0.11931E-02    0.14826E-01  7396  -0.314E-03    0.279E-03
RMM:  92    -0.587600044620E+03    0.38849E-03    0.30030E-02  7629  -0.432E-04    0.761E-03
RMM:  93    -0.587606426951E+03   -0.63823E-02    0.12974E-01  6209  -0.150E-03    0.217E-02
RMM:  94    -0.587597181121E+03    0.92458E-02   -0.11257E-01  7988   0.373E-03    0.850E-03
RMM:  95    -0.587600214287E+03   -0.30332E-02    0.11678E-01  7981  -0.173E-03    0.802E-03
RMM:  96    -0.587598203716E+03    0.20106E-02   -0.43949E-02  7651   0.105E-03    0.147E-02
RMM:  97    -0.587600610383E+03   -0.24067E-02    0.44460E-02  8009  -0.911E-04    0.246E-03
RMM:  98    -0.587600098699E+03    0.51168E-03    0.10899E-02  7978  -0.565E-05    0.992E-03
RMM:  99    -0.587651666334E+03   -0.51568E-01    0.21737E-02  7879  -0.610E-04    0.573E-01
RMM: 100    -0.587618161995E+03    0.33504E-01   -0.20301E+00 12965   0.557E-02    0.225E-01
RMM: 101    -0.587597611013E+03    0.20551E-01   -0.30533E+00 12654   0.565E-02    0.141E-02
RMM: 102    -0.587686898499E+03   -0.89287E-01   -0.87563E-02 12013   0.300E-03    0.749E-01
RMM: 103    -0.587598442293E+03    0.88456E-01   -0.96515E+00 12984   0.141E-01    0.228E-02
RMM: 104    -0.587600249603E+03   -0.18073E-02   -0.41743E-01 12964   0.901E-03    0.115E-02
RMM: 105    -0.587599825721E+03    0.42388E-03    0.12499E-01  9140  -0.653E-04    0.154E-02
RMM: 106    -0.587599811739E+03    0.13982E-04    0.74832E-02  8131  -0.100E-03    0.143E-02
RMM: 107    -0.587605501143E+03   -0.56894E-02    0.24053E-01  7983  -0.328E-03    0.696E-02
RMM: 108    -0.587599207087E+03    0.62941E-02   -0.21749E-01  8683   0.108E-02    0.445E-03
RMM: 109    -0.587607721139E+03   -0.85141E-02    0.21819E-02  8162   0.532E-04    0.174E-01
RMM: 110    -0.587595497271E+03    0.12224E-01   -0.32097E+00  8565   0.490E-02    0.204E-02
RMM: 111    -0.587607157955E+03   -0.11661E-01    0.27317E-01  8275  -0.399E-03    0.233E-01
RMM: 112    -0.587616644994E+03   -0.94870E-02   -0.22308E-01  8550   0.104E-02    0.331E-01
RMM: 113    -0.587625103342E+03   -0.84583E-02   -0.82698E-01  8497   0.233E-02    0.483E-01
RMM: 114    -0.587598640520E+03    0.26463E-01   -0.71858E+00  8958   0.103E-01    0.228E-02
RMM: 115    -0.587597765071E+03    0.87545E-03    0.17405E-01 12846  -0.136E-03    0.248E-02
RMM: 116    -0.587613035416E+03   -0.15270E-01   -0.41306E-02  7777   0.171E-03    0.330E-01
RMM: 117    -0.587601779118E+03    0.11256E-01   -0.19467E+00 11563   0.409E-02    0.168E-02
RMM: 118    -0.587631968936E+03   -0.30190E-01   -0.22762E-02 11316   0.297E-03    0.370E-01
RMM: 119    -0.587599693913E+03    0.32275E-01   -0.24146E+00 12155   0.525E-02    0.184E-02
RMM: 120    -0.587600430100E+03   -0.73619E-03    0.63286E-02 12525   0.763E-04
   7 F= -.58760043E+03 E0= -.58755867E+03  d E =0.213717E-02  mag=    62.5933
       N       E                     dE             d eps       ncg     rms          rms(c)
DAV:   1    -0.587600569720E+03   -0.87581E-03   -0.76380E-01 13680   0.924E-01    0.297E-01
RMM:   2    -0.587622935069E+03   -0.22365E-01   -0.15843E-02 12973   0.255E-01    0.296E+00
RMM:   3    -0.587601556335E+03    0.21379E-01   -0.49500E-03 12976   0.123E-01    0.198E-01
RMM:   4    -0.587602383431E+03   -0.82710E-03   -0.80643E-04 13212   0.467E-02    0.511E-01
RMM:   5    -0.587601637167E+03    0.74626E-03   -0.35468E-04 13071   0.318E-02    0.124E-01
RMM:   6    -0.587601613627E+03    0.23540E-04   -0.86911E-05 13385   0.169E-02    0.110E-01
RMM:   7    -0.587601565521E+03    0.48105E-04   -0.43979E-05 13084   0.138E-02    0.879E-02
[...]
RMM:  29    -0.587599290925E+03   -0.93800E-03    0.56757E-01  8215  -0.801E-03    0.822E-03
RMM:  30    -0.587601492596E+03   -0.22017E-02    0.30877E-02  7972  -0.242E-04    0.306E-03
RMM:  31    -0.587600678977E+03    0.81362E-03    0.11701E-02  7967  -0.975E-06    0.289E-02
RMM:  32    -0.587604068953E+03   -0.33900E-02   -0.37281E-02  8131   0.187E-03    0.106E-01
RMM:  33    -0.587601081593E+03    0.29874E-02   -0.37497E-01  7951   0.106E-02    0.657E-03
RMM:  34    -0.587661173200E+03   -0.60092E-01    0.51708E-02  8059  -0.615E-04    0.173E-01
RMM:  35    -0.587600756664E+03    0.60417E-01   -0.12464E+00 11633   0.331E-02    0.913E-03
RMM:  36    -0.587631197613E+03   -0.30441E-01    0.90395E-02 10907  -0.850E-05    0.696E-01
RMM:  37    -0.587677987004E+03   -0.46789E-01   -0.46760E+00 12974   0.870E-02    0.686E-01
RMM:  38    -0.587598006579E+03    0.79980E-01    0.17710E-02 12634   0.369E-03    0.329E-02
RMM:  39    -0.587599979297E+03   -0.19727E-02    0.34297E-01 12958   0.424E-04    0.447E-02
RMM:  40    -0.587603878359E+03   -0.38991E-02   -0.14226E-01 10060   0.505E-03    0.131E-01
RMM:  41    -0.587600433504E+03    0.34449E-02   -0.14732E+00  7636   0.250E-02    0.198E-02
RMM:  42    -0.587608527572E+03   -0.80941E-02    0.59790E-02  8270  -0.102E-03    0.160E-01
RMM:  43    -0.587599950431E+03    0.85771E-02   -0.18401E+00  8409   0.330E-02    0.130E-02
RMM:  44    -0.587600651219E+03   -0.70079E-03    0.83206E-02  8127  -0.839E-04    0.398E-02
RMM:  45    -0.587598996659E+03    0.16546E-02   -0.88951E-01  8072   0.124E-02    0.597E-02
RMM:  46    -0.587601044565E+03   -0.20479E-02   -0.90515E-01  8001   0.128E-02    0.398E-03
RMM:  47    -0.587599906684E+03    0.11379E-02    0.38334E-02  8055  -0.256E-04    0.258E-02
RMM:  48    -0.587614409626E+03   -0.14503E-01    0.89629E-02  7929  -0.193E-03    0.183E-01
RMM:  49    -0.587599659884E+03    0.14750E-01   -0.42891E-01  9609   0.182E-02    0.713E-03
RMM:  50    -0.587601402398E+03   -0.17425E-02    0.57947E-02  8510  -0.227E-04    0.448E-03
RMM:  51    -0.587599732526E+03    0.16699E-02    0.20537E-02  7884  -0.818E-05    0.139E-02
RMM:  52    -0.587601023317E+03   -0.12908E-02    0.13508E-01  8059  -0.276E-03    0.130E-02
RMM:  53    -0.587600416294E+03    0.60702E-03    0.89145E-02  7992  -0.141E-03    0.158E-02
RMM:  54    -0.587600467801E+03   -0.51507E-04    0.46789E-02  5478  -0.126E-03    0.142E-02
RMM:  55    -0.587599183039E+03    0.12848E-02    0.23425E-01  4442  -0.339E-03    0.321E-02
RMM:  56    -0.587647638796E+03   -0.48456E-01    0.24688E-01  7944  -0.423E-03    0.415E-01
RMM:  57    -0.587600537024E+03    0.47102E-01   -0.20193E+00 12817   0.492E-02    0.851E-03
RMM:  58    -0.587599147106E+03    0.13899E-02    0.87772E-02 12407   0.835E-04    0.378E-02
RMM:  59    -0.587599681716E+03   -0.53461E-03    0.15731E-01  7939  -0.294E-03    0.115E-02
RMM:  60    -0.587601475917E+03   -0.17942E-02    0.14626E-01  8108  -0.256E-03    0.238E-03
RMM:  61    -0.587601275248E+03    0.20067E-03    0.10865E-02  7962   0.850E-06    0.388E-03
RMM:  62    -0.587630741449E+03   -0.29466E-01    0.19014E-02  7933   0.190E-04    0.312E-01
RMM:  63    -0.587691531144E+03   -0.60790E-01   -0.10163E+00 12379   0.252E-02    0.352E-01
RMM:  64    -0.587656813838E+03    0.34717E-01   -0.24619E-02 10677   0.969E-03    0.332E-01
RMM:  65    -0.587601371022E+03    0.55443E-01   -0.21087E+00  7971   0.539E-02    0.600E-03
RMM:  66    -0.587600790996E+03    0.58003E-03    0.21065E-02 12658   0.179E-03    0.148E-02
RMM:  67    -0.587600823880E+03   -0.32884E-04    0.19535E-01  7816  -0.222E-03    0.641E-03
RMM:  68    -0.587596628338E+03    0.41955E-02    0.61248E-02  8052  -0.983E-04    0.524E-02
RMM:  69    -0.587601159817E+03   -0.45315E-02    0.53948E-01  8012  -0.792E-03    0.625E-03
RMM:  70    -0.587598382564E+03    0.27773E-02    0.94775E-02  7958  -0.127E-03    0.360E-02
RMM:  71    -0.587601346727E+03   -0.29642E-02    0.17809E-01  7989  -0.397E-03    0.121E-01
RMM:  72    -0.587609358189E+03   -0.80115E-02   -0.29965E-01  8161   0.961E-03    0.272E-01
RMM:  73    -0.587672399433E+03   -0.63041E-01   -0.34684E+00  9178   0.500E-02    0.211E-01
RMM:  74    -0.587601185119E+03    0.71214E-01   -0.24789E+00 12745   0.681E-02    0.103E-02
RMM:  75    -0.587601171479E+03    0.13640E-04    0.37897E-02 12509   0.154E-03    0.516E-02
RMM:  76    -0.587601333645E+03   -0.16217E-03   -0.63118E-01  7620   0.941E-03    0.425E-03
RMM:  77    -0.587598970339E+03    0.23633E-02    0.69595E-02  8159  -0.553E-04    0.125E-02
RMM:  78    -0.587771223399E+03   -0.17225E+00   -0.24601E-01  7977   0.361E-03    0.329E-01
RMM:  79    -0.587601001062E+03    0.17022E+00   -0.44802E-01 12625   0.289E-02    0.130E-02
RMM:  80    -0.587597390080E+03    0.36110E-02    0.13542E-01 12178   0.179E-04    0.117E-02
RMM:  81    -0.587600191176E+03   -0.28011E-02    0.11637E-01  7768  -0.134E-03    0.223E-02
RMM:  82    -0.587600149855E+03    0.41320E-04    0.41210E-03  8069   0.982E-05    0.638E-03
RMM:  83    -0.587601345160E+03   -0.11953E-02    0.53146E-02  7960  -0.150E-03    0.359E-03
RMM:  84    -0.587604535763E+03   -0.31906E-02    0.38618E-02  7942  -0.441E-04    0.468E-02
RMM:  85    -0.587600838618E+03    0.36971E-02   -0.82758E-01  8046   0.143E-02    0.947E-03
RMM:  86    -0.587599770831E+03    0.10678E-02    0.19978E-01  7995  -0.239E-03    0.193E-03
RMM:  87    -0.587598552988E+03    0.12178E-02    0.13487E-02  7987   0.114E-04    0.243E-02
RMM:  88    -0.587600865390E+03   -0.23124E-02    0.16798E-01  7939  -0.412E-03    0.135E-02
RMM:  89    -0.587601229606E+03   -0.36422E-03    0.16981E-01  7835  -0.232E-03    0.532E-02
RMM:  90    -0.587604430481E+03   -0.32009E-02   -0.67526E-01  7982   0.111E-02    0.118E-01
RMM:  91    -0.587601489545E+03    0.29409E-02   -0.15351E+00  8001   0.272E-02    0.767E-02
RMM:  92    -0.587601432119E+03    0.57426E-04   -0.14762E+00  8034   0.206E-02    0.205E-03
RMM:  93    -0.587599456671E+03    0.19754E-02    0.18516E-02  7972   0.794E-06    0.420E-02
RMM:  94    -0.587598089051E+03    0.13676E-02   -0.15003E-01  7939   0.369E-03    0.308E-02
RMM:  95    -0.587601059852E+03   -0.29708E-02    0.49924E-01  7939  -0.764E-03    0.902E-03
RMM:  96    -0.587610908232E+03   -0.98484E-02    0.58965E-02  7977  -0.105E-03    0.322E-01
RMM:  97    -0.587599727528E+03    0.11181E-01   -0.43874E+00 11786   0.661E-02    0.511E-03
RMM:  98    -0.587601401299E+03   -0.16738E-02   -0.56577E-02  9599   0.215E-03    0.318E-03
RMM:  99    -0.587601108821E+03    0.29248E-03    0.29187E-02  7805   0.117E-04    0.999E-03
RMM: 100    -0.587601451408E+03   -0.34259E-03    0.92604E-02  8076  -0.127E-03    0.169E-03
RMM: 101    -0.587600595373E+03    0.85603E-03    0.29663E-02  7913  -0.239E-04    0.188E-02
RMM: 102    -0.587619484418E+03   -0.18889E-01    0.88200E-02  7941  -0.186E-03    0.164E-01
RMM: 103    -0.587600714421E+03    0.18770E-01   -0.33881E+00 11067   0.518E-02    0.969E-02
RMM: 104    -0.587624629781E+03   -0.23915E-01   -0.10013E+00  9793   0.179E-02    0.492E-01
RMM: 105    -0.587600727254E+03    0.23903E-01   -0.34702E+00 12530   0.562E-02    0.169E-02
RMM: 106    -0.587598726930E+03    0.20003E-02    0.47430E-02 12818   0.573E-04    0.237E-02
RMM: 107    -0.587598833315E+03   -0.10638E-03    0.41316E-01  7640  -0.517E-03    0.201E-02
RMM: 108    -0.587606110252E+03   -0.72769E-02    0.10954E-01  8185  -0.284E-03    0.138E-01
RMM: 109    -0.587600238569E+03    0.58717E-02   -0.53539E-01  8304   0.141E-02    0.129E-02
RMM: 110    -0.587600001985E+03    0.23658E-03    0.17055E-01  7898  -0.239E-03    0.176E-02
RMM: 111    -0.587599259961E+03    0.74202E-03   -0.34497E-01  8075   0.465E-03    0.177E-02
RMM: 112    -0.587601486724E+03   -0.22268E-02    0.32193E-01  7961  -0.471E-03    0.221E-03
RMM: 113    -0.587600378301E+03    0.11084E-02    0.10886E-02  7981  -0.267E-05    0.147E-02
RMM: 114    -0.587600311611E+03    0.66690E-04    0.18985E-01  7065  -0.281E-03    0.815E-03
RMM: 115    -0.587600902137E+03   -0.59053E-03    0.98173E-02  5571  -0.197E-03    0.110E-02
RMM: 116    -0.587601360100E+03   -0.45796E-03    0.11746E-01  5203  -0.166E-03    0.344E-03
RMM: 117    -0.587599347888E+03    0.20122E-02    0.47841E-02  7837  -0.535E-04    0.205E-02
RMM: 118    -0.587604271520E+03   -0.49236E-02    0.24121E-01  7977  -0.416E-03    0.892E-02
RMM: 119    -0.587597511821E+03    0.67597E-02   -0.44834E-03  8152   0.904E-03    0.150E-02
RMM: 120    -0.587604194376E+03   -0.66826E-02    0.21204E-01  7992  -0.310E-03
   8 F= -.58760419E+03 E0= -.58756156E+03  d E =-.162711E-02  mag=    62.5937
       N       E                     dE             d eps       ncg     rms          rms(c)
DAV:   1    -0.587601586323E+03   -0.40745E-02   -0.74266E-01 13680   0.574E-01    0.157E-01
RMM:   2    -0.587606427773E+03   -0.48415E-02   -0.50169E-03 12960   0.146E-01    0.134E+00
RMM:   3    -0.587602017985E+03    0.44098E-02   -0.11170E-03 12961   0.587E-02    0.159E-01
RMM:   4    -0.587602208881E+03   -0.19090E-03   -0.22199E-04 12973   0.256E-02    0.274E-01
RMM:   5    -0.587602017567E+03    0.19131E-03   -0.77382E-05 13013   0.163E-02    0.104E-01
RMM:   6    -0.587601989122E+03    0.28445E-04   -0.15484E-05 13058   0.937E-03    0.525E-02
RMM:   7    -0.587601975030E+03    0.14092E-04    0.78455E-06 13021   0.776E-03    0.477E-02
RMM:   8    -0.587601969109E+03    0.59213E-05    0.72696E-05 12943   0.673E-03    0.465E-02
RMM:   9    -0.587601924677E+03    0.44432E-04    0.40263E-04 13079   0.391E-03    0.105E-02
RMM:  10    -0.587601917751E+03    0.69256E-05    0.15021E-03 12571   0.150E-03    0.675E-03
RMM:  11    -0.587599356713E+03    0.25610E-02    0.18297E-03  8952   0.694E-04    0.118E-02
RMM:  12    -0.587617175195E+03   -0.17818E-01    0.45876E-02  8314  -0.170E-03    0.132E-01
RMM:  13    -0.587702368639E+03   -0.85193E-01   -0.64720E-01 12291   0.224E-02    0.425E-01
RMM:  14    -0.587866424740E+03   -0.16406E+00   -0.29186E+00 12798   0.819E-02    0.639E-01
RMM:  15    -0.587654765114E+03    0.21166E+00   -0.75944E+00 12965   0.153E-01    0.643E-02
RMM:  16    -0.587638185257E+03    0.16580E-01   -0.58514E-01 12953   0.158E-02    0.477E-02
RMM:  17    -0.587760835071E+03   -0.12265E+00   -0.27055E-02  9222   0.647E-03    0.200E-01
RMM:  18    -0.587619321396E+03    0.14151E+00   -0.39359E+00  9973   0.641E-02    0.321E-02
RMM:  19    -0.587662695200E+03   -0.43374E-01   -0.74607E-02 11651   0.362E-03    0.582E-02
RMM:  20    -0.587599965112E+03    0.62730E-01   -0.89932E-01  8058   0.188E-02    0.323E-02
RMM:  21    -0.587741497511E+03   -0.14153E+00    0.40853E-01  9685  -0.490E-03    0.340E-01
RMM:  22    -0.587727355790E+03    0.14142E-01   -0.47337E+00 12753   0.730E-02    0.579E-01
RMM:  23    -0.587603474334E+03    0.12388E+00   -0.61719E+00 12048   0.104E-01    0.144E-01
RMM:  24    -0.587599909914E+03    0.35644E-02   -0.17891E+00 12537   0.260E-02    0.375E-02
RMM:  25    -0.587601488846E+03   -0.15789E-02    0.37568E-01 12444  -0.399E-03    0.932E-03
RMM:  26    -0.587604600235E+03   -0.31114E-02    0.64631E-02  7975  -0.530E-04    0.115E-01
RMM:  27    -0.587599804338E+03    0.47959E-02   -0.25953E-01  8232   0.110E-02    0.252E-02
RMM:  28    -0.587601721517E+03   -0.19172E-02    0.35909E-01  8007  -0.413E-03    0.516E-03
RMM:  29    -0.587598827716E+03    0.28938E-02    0.23774E-02  8015  -0.200E-04    0.662E-03
RMM:  30    -0.587657671726E+03   -0.58844E-01   -0.36480E-03  8060   0.190E-04    0.200E-01
RMM:  31    -0.587600991557E+03    0.56680E-01   -0.47592E+00  9404   0.671E-02    0.205E-02
RMM:  32    -0.587770056780E+03   -0.16907E+00    0.39322E-02  9232  -0.183E-04    0.720E-01
RMM:  33    -0.587599528076E+03    0.17053E+00   -0.80797E+00 12972   0.124E-01    0.270E-02
RMM:  34    -0.587632694122E+03   -0.33166E-01   -0.35475E-01 12959   0.780E-03    0.502E-01
RMM:  35    -0.587637904340E+03   -0.52102E-02   -0.55027E+00 12270   0.873E-02    0.363E-01
RMM:  36    -0.587601714272E+03    0.36190E-01   -0.49622E+00 10834   0.714E-02    0.974E-03
RMM:  37    -0.587600217765E+03    0.14965E-02    0.73081E-02 12541   0.118E-03    0.257E-02
RMM:  38    -0.587611095406E+03   -0.10878E-01    0.49150E-02  8187  -0.835E-04    0.332E-01
RMM:  39    -0.587599616595E+03    0.11479E-01    0.45497E-02 12086   0.115E-02    0.171E-02
RMM:  40    -0.587601781646E+03   -0.21651E-02    0.17595E-01 10922  -0.207E-03    0.428E-03
RMM:  41    -0.587600703866E+03    0.10778E-02    0.19395E-02  7637   0.604E-05    0.144E-02
RMM:  42    -0.587601656877E+03   -0.95301E-03    0.15832E-01  8135  -0.208E-03    0.512E-03
RMM:  43    -0.587599956692E+03    0.17002E-02    0.66800E-02  7804  -0.986E-04    0.297E-02
RMM:  44    -0.587601522329E+03   -0.15656E-02    0.24049E-01  7972  -0.387E-03    0.699E-03
RMM:  45    -0.587601210468E+03    0.31186E-03    0.30771E-02  7906  -0.521E-04    0.367E-02
RMM:  46    -0.587598345457E+03    0.28650E-02   -0.10466E-01  7965   0.326E-03    0.217E-02
RMM:  47    -0.587613618132E+03   -0.15273E-01    0.10162E-01  8002  -0.170E-03    0.138E-01
RMM:  48    -0.587598623657E+03    0.14994E-01   -0.10891E-01 10202   0.105E-02    0.593E-03
RMM:  49    -0.587599697128E+03   -0.10735E-02    0.83206E-02  8671  -0.436E-04    0.280E-02
RMM:  50    -0.587600721724E+03   -0.10246E-02    0.33612E-01  7920  -0.514E-03    0.296E-02
RMM:  51    -0.587601540270E+03   -0.81855E-03    0.26158E-01  8009  -0.389E-03    0.644E-03
RMM:  52    -0.587634340157E+03   -0.32800E-01    0.44258E-02  7955  -0.766E-04    0.441E-01
RMM:  53    -0.587601821320E+03    0.32519E-01   -0.56772E+00 12763   0.854E-02    0.513E-03
RMM:  54    -0.587599600518E+03    0.22208E-02    0.11723E-02 12043   0.140E-03    0.101E-02
RMM:  55    -0.587601861111E+03   -0.22606E-02    0.10402E-01  7688  -0.191E-03    0.395E-03
RMM:  56    -0.587601221317E+03    0.63979E-03    0.33584E-02  8130  -0.140E-04    0.183E-02
RMM:  57    -0.587610592642E+03   -0.93713E-02    0.20458E-01  7942  -0.273E-03    0.245E-01
RMM:  58    -0.587601613111E+03    0.89795E-02   -0.35720E+00  9641   0.506E-02    0.510E-03
RMM:  59    -0.587600846893E+03    0.76622E-03    0.21105E-02  8874   0.680E-04    0.932E-03
RMM:  60    -0.587599603826E+03    0.12431E-02    0.11169E-01  7861  -0.184E-03    0.411E-02
RMM:  61    -0.587600376863E+03   -0.77304E-03    0.45723E-01  8037  -0.712E-03    0.513E-03
RMM:  62    -0.587597914293E+03    0.24626E-02    0.64949E-02  7926  -0.894E-04    0.256E-02
RMM:  63    -0.587601572055E+03   -0.36578E-02    0.16687E-01  7989  -0.310E-03    0.463E-03
RMM:  64    -0.587596779719E+03    0.47923E-02    0.19860E-02  7957  -0.929E-05    0.330E-02
RMM:  65    -0.587599769636E+03   -0.29899E-02    0.23322E-01  7941  -0.458E-03    0.264E-02
RMM:  66    -0.587601843944E+03   -0.20743E-02    0.27353E-01  7641  -0.457E-03    0.570E-03
RMM:  67    -0.587601187884E+03    0.65606E-03   -0.20468E-02  7940   0.946E-04    0.163E-02
RMM:  68    -0.587598703725E+03    0.24842E-02    0.10019E-01  7985  -0.191E-03    0.195E-02
RMM:  69    -0.587600632619E+03   -0.19289E-02    0.25614E-01  7350  -0.516E-03    0.147E-02
RMM:  70    -0.587600629048E+03    0.35708E-05    0.87971E-02  6659  -0.157E-03    0.220E-02
RMM:  71    -0.587601648111E+03   -0.10191E-02    0.22401E-01  7166  -0.374E-03    0.571E-03
RMM:  72    -0.587600197884E+03    0.14502E-02    0.10769E-02  7944  -0.156E-04    0.238E-02
RMM:  73    -0.587602517031E+03   -0.23191E-02    0.15191E-01  7916  -0.335E-03    0.202E-02
RMM:  74    -0.587598174112E+03    0.43429E-02   -0.68141E-02  7970   0.231E-03    0.149E-02
RMM:  75    -0.587600291603E+03   -0.21175E-02    0.28398E-01  7907  -0.389E-03    0.190E-02
RMM:  76    -0.587598956732E+03    0.13349E-02    0.12774E-01  7901  -0.246E-03    0.224E-02
RMM:  77    -0.587601837714E+03   -0.28810E-02    0.79281E-02  7892  -0.209E-03    0.284E-03
RMM:  78    -0.587601876733E+03   -0.39019E-04    0.14017E-02  7849  -0.178E-04    0.233E-03
RMM:  79    -0.587612852466E+03   -0.10976E-01    0.24594E-02  5530  -0.154E-04    0.257E-01
RMM:  80    -0.587601752107E+03    0.11100E-01   -0.11848E+00 10580   0.301E-02    0.660E-03
RMM:  81    -0.587644968809E+03   -0.43217E-01    0.40581E-02  8894   0.462E-04    0.410E-01
RMM:  82    -0.587599033987E+03    0.45935E-01   -0.26929E+00 12690   0.588E-02    0.206E-02
RMM:  83    -0.587601280042E+03   -0.22461E-02    0.27149E-01 12870  -0.322E-03    0.192E-02
RMM:  84    -0.587601905488E+03   -0.62545E-03    0.81425E-02  8066  -0.771E-04    0.349E-03
RMM:  85    -0.587601365671E+03    0.53982E-03    0.48734E-03  8174   0.361E-04    0.603E-03
RMM:  86    -0.587601740482E+03   -0.37481E-03    0.50061E-02  7901  -0.663E-04    0.424E-03
RMM:  87    -0.587633431478E+03   -0.31691E-01    0.81825E-02  7939  -0.950E-04    0.317E-01
RMM:  88    -0.587796541839E+03   -0.16311E+00    0.67104E-02 12390   0.580E-03    0.479E-01
RMM:  89    -0.587692865698E+03    0.10368E+00   -0.37123E+00 12591   0.774E-02    0.440E-01
RMM:  90    -0.587605908625E+03    0.86957E-01   -0.32741E+00  8059   0.689E-02    0.137E-01
RMM:  91    -0.587885257425E+03   -0.27935E+00    0.14625E-01 10884   0.945E-04    0.449E-01
RMM:  92    -0.587601450091E+03    0.28381E+00   -0.17269E-02 12561   0.975E-03    0.100E-02
RMM:  93    -0.587654050471E+03   -0.52600E-01    0.62261E-02 12451   0.958E-04    0.945E-01
RMM:  94    -0.587601185602E+03    0.52865E-01   -0.83953E+00 12975   0.126E-01    0.508E-02
RMM:  95    -0.587597678985E+03    0.35066E-02   -0.34918E-01 12974   0.918E-03    0.142E-02
RMM:  96    -0.587599344040E+03   -0.16651E-02    0.10649E-01  9695  -0.503E-04    0.150E-02
RMM:  97    -0.587600354676E+03   -0.10106E-02    0.13517E-03  7926   0.326E-04    0.137E-02
RMM:  98    -0.587598865972E+03    0.14887E-02    0.17634E-01  8003  -0.327E-03    0.387E-02
RMM:  99    -0.587601073430E+03   -0.22075E-02    0.39087E-01  7935  -0.570E-03    0.116E-02
RMM: 100    -0.587600553201E+03    0.52023E-03    0.66928E-02  8041  -0.161E-03    0.227E-02
RMM: 101    -0.587601613771E+03   -0.10606E-02    0.25236E-01  7075  -0.366E-03    0.736E-03
RMM: 102    -0.587601520131E+03    0.93640E-04    0.14030E-02  8054  -0.169E-04    0.539E-03
RMM: 103    -0.587600473860E+03    0.10463E-02    0.36825E-02  7836  -0.712E-04    0.130E-02
RMM: 104    -0.587598665261E+03    0.18086E-02    0.11893E-01  7683  -0.197E-03    0.204E-02
RMM: 105    -0.587601876245E+03   -0.32110E-02    0.37167E-01  5697  -0.562E-03    0.330E-03
RMM: 106    -0.587601388174E+03    0.48807E-03    0.12584E-02  7812  -0.155E-04    0.771E-03
RMM: 107    -0.587598276966E+03    0.31112E-02    0.12950E-01  7966  -0.177E-03    0.253E-02
RMM: 108    -0.587604781136E+03   -0.65042E-02    0.28067E-01  7939  -0.461E-03    0.188E-01
RMM: 109    -0.587691610450E+03   -0.86829E-01   -0.14960E+00  9683   0.280E-02    0.447E-01
RMM: 110    -0.587608713046E+03    0.82897E-01   -0.25986E+00 11698   0.584E-02    0.329E-02
RMM: 111    -0.587601811588E+03    0.69015E-02   -0.36760E-01 12706   0.935E-03    0.619E-03
RMM: 112    -0.587601609464E+03    0.20212E-03    0.15540E-02  8382   0.625E-04    0.930E-03
RMM: 113    -0.587600755277E+03    0.85419E-03    0.77833E-02  8081  -0.758E-04    0.691E-03
RMM: 114    -0.587600275578E+03    0.47970E-03    0.20236E-02  7917  -0.176E-04    0.651E-03
RMM: 115    -0.587601311832E+03   -0.10363E-02    0.44707E-02  7960  -0.847E-04    0.123E-02
RMM: 116    -0.587611939752E+03   -0.10628E-01    0.95182E-02  7528  -0.149E-03    0.182E-01
RMM: 117    -0.587733781967E+03   -0.12184E+00   -0.86013E-01  9835   0.232E-02    0.288E-01
RMM: 118    -0.587607178685E+03    0.12660E+00   -0.57814E+00  9608   0.869E-02    0.296E-02
RMM: 119    -0.587733975138E+03   -0.12680E+00   -0.35596E-01 11892   0.947E-03    0.689E-01
RMM: 120    -0.587600263125E+03    0.13371E+00   -0.67179E+00 12970   0.112E-01
   9 F= -.58760026E+03 E0= -.58755982E+03  d E =0.393125E-02  mag=    62.5912
