In                                      
           1
    10.554000    0.000000    0.000000
     0.000000   10.554000    0.000000
     0.000000    0.000000   10.554000
   In   Ni
   1 107
Direct configuration=     1
   0.00000000  0.00000000  0.00000000
   0.00000000  0.16666667  0.16666667
   0.16666667  0.00000000  0.16666667
   0.16666667  0.16666667  0.00000000
   0.00000000  0.00000000  0.33333333
   0.00000000  0.16666667  0.50000000
   0.16666667  0.00000000  0.50000000
   0.16666667  0.16666667  0.33333333
   0.00000000  0.00000000  0.66666667
   0.00000000  0.16666667  0.83333333
   0.16666667  0.00000000  0.83333333
   0.16666667  0.16666667  0.66666667
   0.00000000  0.33333333  0.00000000
   0.00000000  0.50000000  0.16666667
   0.16666667  0.33333333  0.16666667
   0.16666667  0.50000000  0.00000000
   0.00000000  0.33333333  0.33333333
   0.00000000  0.50000000  0.50000000
   0.16666667  0.33333333  0.50000000
   0.16666667  0.50000000  0.33333333
   0.00000000  0.33333333  0.66666667
   0.00000000  0.50000000  0.83333333
   0.16666667  0.33333333  0.83333333
   0.16666667  0.50000000  0.66666667
   0.00000000  0.66666667  0.00000000
   0.00000000  0.83333333  0.16666667
   0.16666667  0.66666667  0.16666667
   0.16666667  0.83333333  0.00000000
   0.00000000  0.66666667  0.33333333
   0.00000000  0.83333333  0.50000000
   0.16666667  0.66666667  0.50000000
   0.16666667  0.83333333  0.33333333
   0.00000000  0.66666667  0.66666667
   0.00000000  0.83333333  0.83333333
   0.16666667  0.66666667  0.83333333
   0.16666667  0.83333333  0.66666667
   0.33333333  0.00000000  0.00000000
   0.33333333  0.16666667  0.16666667
   0.50000000  0.00000000  0.16666667
   0.50000000  0.16666667  0.00000000
   0.33333333  0.00000000  0.33333333
   0.33333333  0.16666667  0.50000000
   0.50000000  0.00000000  0.50000000
   0.50000000  0.16666667  0.33333333
   0.33333333  0.00000000  0.66666667
   0.33333333  0.16666667  0.83333333
   0.50000000  0.00000000  0.83333333
   0.50000000  0.16666667  0.66666667
   0.33333333  0.33333333  0.00000000
   0.33333333  0.50000000  0.16666667
   0.50000000  0.33333333  0.16666667
   0.50000000  0.50000000  0.00000000
   0.33333333  0.33333333  0.33333333
   0.33333333  0.50000000  0.50000000
   0.50000000  0.33333333  0.50000000
   0.50000000  0.50000000  0.33333333
   0.33333333  0.33333333  0.66666667
   0.33333333  0.50000000  0.83333333
   0.50000000  0.33333333  0.83333333
   0.50000000  0.50000000  0.66666667
   0.33333333  0.66666667  0.00000000
   0.33333333  0.83333333  0.16666667
   0.50000000  0.66666667  0.16666667
   0.50000000  0.83333333  0.00000000
   0.33333333  0.66666667  0.33333333
   0.33333333  0.83333333  0.50000000
   0.50000000  0.66666667  0.50000000
   0.50000000  0.83333333  0.33333333
   0.33333333  0.66666667  0.66666667
   0.33333333  0.83333333  0.83333333
   0.50000000  0.66666667  0.83333333
   0.50000000  0.83333333  0.66666667
   0.66666667  0.00000000  0.00000000
   0.66666667  0.16666667  0.16666667
   0.83333333  0.00000000  0.16666667
   0.83333333  0.16666667  0.00000000
   0.66666667  0.00000000  0.33333333
   0.66666667  0.16666667  0.50000000
   0.83333333  0.00000000  0.50000000
   0.83333333  0.16666667  0.33333333
   0.66666667  0.00000000  0.66666667
   0.66666667  0.16666667  0.83333333
   0.83333333  0.00000000  0.83333333
   0.83333333  0.16666667  0.66666667
   0.66666667  0.33333333  0.00000000
   0.66666667  0.50000000  0.16666667
   0.83333333  0.33333333  0.16666667
   0.83333333  0.50000000  0.00000000
   0.66666667  0.33333333  0.33333333
   0.66666667  0.50000000  0.50000000
   0.83333333  0.33333333  0.50000000
   0.83333333  0.50000000  0.33333333
   0.66666667  0.33333333  0.66666667
   0.66666667  0.50000000  0.83333333
   0.83333333  0.33333333  0.83333333
   0.83333333  0.50000000  0.66666667
   0.66666667  0.66666667  0.00000000
   0.66666667  0.83333333  0.16666667
   0.83333333  0.66666667  0.16666667
   0.83333333  0.83333333  0.00000000
   0.66666667  0.66666667  0.33333333
   0.66666667  0.83333333  0.50000000
   0.83333333  0.66666667  0.50000000
   0.83333333  0.83333333  0.33333333
   0.66666667  0.66666667  0.66666667
   0.66666667  0.83333333  0.83333333
   0.83333333  0.66666667  0.83333333
   0.83333333  0.83333333  0.66666667
Direct configuration=     2
  -0.00000000  0.00000000  0.00000000
  -0.00000000  0.17017077  0.17017077
   0.17017077  0.00000000  0.17017077
   0.17017077  0.17017077  0.00000000
  -0.00000000  0.00000000  0.33349292
  -0.00000000  0.16669409  0.50000000
   0.16669409  0.00000000  0.50000000
   0.16669765  0.16669765  0.33332599
  -0.00000000  0.00000000  0.66650708
  -0.00000000  0.17017077  0.82982923
   0.17017077  0.00000000  0.82982923
   0.16669765  0.16669765  0.66667401
  -0.00000000  0.33349292  0.00000000
  -0.00000000  0.50000000  0.16669409
   0.16669765  0.33332599  0.16669765
   0.16669409  0.50000000  0.00000000
  -0.00000000  0.33358660  0.33358660
  -0.00000000  0.50000000  0.50000000
   0.16670304  0.33330853  0.50000000
   0.16670304  0.50000000  0.33330853
  -0.00000000  0.33358660  0.66641340
  -0.00000000  0.50000000  0.83330591
   0.16669765  0.33332599  0.83330235
   0.16670304  0.50000000  0.66669147
  -0.00000000  0.66650708  0.00000000
  -0.00000000  0.82982923  0.17017077
   0.16669765  0.66667401  0.16669765
   0.17017077  0.82982923  0.00000000
  -0.00000000  0.66641340  0.33358660
  -0.00000000  0.83330591  0.50000000
   0.16670304  0.66669147  0.50000000
   0.16669765  0.83330235  0.33332599
  -0.00000000  0.66641340  0.66641340
  -0.00000000  0.82982923  0.82982923
   0.16669765  0.66667401  0.83330235
   0.16669765  0.83330235  0.66667401
   0.33349292  0.00000000  0.00000000
   0.33332599  0.16669765  0.16669765
   0.50000000  0.00000000  0.16669409
   0.50000000  0.16669409  0.00000000
   0.33358660  0.00000000  0.33358660
   0.33330853  0.16670304  0.50000000
   0.50000000  0.00000000  0.50000000
   0.50000000  0.16670304  0.33330853
   0.33358660  0.00000000  0.66641340
   0.33332599  0.16669765  0.83330235
   0.50000000  0.00000000  0.83330591
   0.50000000  0.16670304  0.66669147
   0.33358660  0.33358660  0.00000000
   0.33330853  0.50000000  0.16670304
   0.50000000  0.33330853  0.16670304
   0.50000000  0.50000000  0.00000000
   0.33331543  0.33331543  0.33331543
   0.33332336  0.50000000  0.50000000
   0.50000000  0.33332336  0.50000000
   0.50000000  0.50000000  0.33332336
   0.33331543  0.33331543  0.66668457
   0.33330853  0.50000000  0.83329696
   0.50000000  0.33330853  0.83329696
   0.50000000  0.50000000  0.66667664
   0.33358660  0.66641340  0.00000000
   0.33332599  0.83330235  0.16669765
   0.50000000  0.66669147  0.16670304
   0.50000000  0.83330591  0.00000000
   0.33331543  0.66668457  0.33331543
   0.33330853  0.83329696  0.50000000
   0.50000000  0.66667664  0.50000000
   0.50000000  0.83329696  0.33330853
   0.33331543  0.66668457  0.66668457
   0.33332599  0.83330235  0.83330235
   0.50000000  0.66669147  0.83329696
   0.50000000  0.83329696  0.66669147
   0.66650708  0.00000000  0.00000000
   0.66667401  0.16669765  0.16669765
   0.82982923  0.00000000  0.17017077
   0.82982923  0.17017077  0.00000000
   0.66641340  0.00000000  0.33358660
   0.66669147  0.16670304  0.50000000
   0.83330591  0.00000000  0.50000000
   0.83330235  0.16669765  0.33332599
   0.66641340  0.00000000  0.66641340
   0.66667401  0.16669765  0.83330235
   0.82982923  0.00000000  0.82982923
   0.83330235  0.16669765  0.66667401
   0.66641340  0.33358660  0.00000000
   0.66669147  0.50000000  0.16670304
   0.83330235  0.33332599  0.16669765
   0.83330591  0.50000000  0.00000000
   0.66668457  0.33331543  0.33331543
   0.66667664  0.50000000  0.50000000
   0.83329696  0.33330853  0.50000000
   0.83329696  0.50000000  0.33330853
   0.66668457  0.33331543  0.66668457
   0.66669147  0.50000000  0.83329696
   0.83330235  0.33332599  0.83330235
   0.83329696  0.50000000  0.66669147
   0.66641340  0.66641340  0.00000000
   0.66667401  0.83330235  0.16669765
   0.83330235  0.66667401  0.16669765
   0.82982923  0.82982923  0.00000000
   0.66668457  0.66668457  0.33331543
   0.66669147  0.83329696  0.50000000
   0.83329696  0.66669147  0.50000000
   0.83330235  0.83330235  0.33332599
   0.66668457  0.66668457  0.66668457
   0.66667401  0.83330235  0.83330235
   0.83330235  0.66667401  0.83330235
   0.83330235  0.83330235  0.66667401
Direct configuration=     3
  -0.00000000  0.00000000  0.00000000
  -0.00000000  0.17166721  0.17166721
   0.17166721  0.00000000  0.17166721
   0.17166721  0.17166721  0.00000000
  -0.00000000  0.00000000  0.33356107
  -0.00000000  0.16670580  0.50000000
   0.16670580  0.00000000  0.50000000
   0.16671088  0.16671088  0.33332286
  -0.00000000  0.00000000  0.66643893
  -0.00000000  0.17166721  0.82833279
   0.17166721  0.00000000  0.82833279
   0.16671088  0.16671088  0.66667714
  -0.00000000  0.33356107  0.00000000
  -0.00000000  0.50000000  0.16670580
   0.16671088  0.33332286  0.16671088
   0.16670580  0.50000000  0.00000000
  -0.00000000  0.33369476  0.33369476
  -0.00000000  0.50000000  0.50000000
   0.16671858  0.33329794  0.50000000
   0.16671858  0.50000000  0.33329794
  -0.00000000  0.33369476  0.66630524
  -0.00000000  0.50000000  0.83329420
   0.16671088  0.33332286  0.83328912
   0.16671858  0.50000000  0.66670206
  -0.00000000  0.66643893  0.00000000
  -0.00000000  0.82833279  0.17166721
   0.16671088  0.66667714  0.16671088
   0.17166721  0.82833279  0.00000000
  -0.00000000  0.66630524  0.33369476
  -0.00000000  0.83329420  0.50000000
   0.16671858  0.66670206  0.50000000
   0.16671088  0.83328912  0.33332286
  -0.00000000  0.66630524  0.66630524
  -0.00000000  0.82833279  0.82833279
   0.16671088  0.66667714  0.83328912
   0.16671088  0.83328912  0.66667714
   0.33356107  0.00000000  0.00000000
   0.33332286  0.16671088  0.16671088
   0.50000000  0.00000000  0.16670580
   0.50000000  0.16670580  0.00000000
   0.33369476  0.00000000  0.33369476
   0.33329794  0.16671858  0.50000000
   0.50000000  0.00000000  0.50000000
   0.50000000  0.16671858  0.33329794
   0.33369476  0.00000000  0.66630524
   0.33332286  0.16671088  0.83328912
   0.50000000  0.00000000  0.83329420
   0.50000000  0.16671858  0.66670206
   0.33369476  0.33369476  0.00000000
   0.33329794  0.50000000  0.16671858
   0.50000000  0.33329794  0.16671858
   0.50000000  0.50000000  0.00000000
   0.33330778  0.33330778  0.33330778
   0.33331910  0.50000000  0.50000000
   0.50000000  0.33331910  0.50000000
   0.50000000  0.50000000  0.33331910
   0.33330778  0.33330778  0.66669222
   0.33329794  0.50000000  0.83328142
   0.50000000  0.33329794  0.83328142
   0.50000000  0.50000000  0.66668090
   0.33369476  0.66630524  0.00000000
   0.33332286  0.83328912  0.16671088
   0.50000000  0.66670206  0.16671858
   0.50000000  0.83329420  0.00000000
   0.33330778  0.66669222  0.33330778
   0.33329794  0.83328142  0.50000000
   0.50000000  0.66668090  0.50000000
   0.50000000  0.83328142  0.33329794
   0.33330778  0.66669222  0.66669222
   0.33332286  0.83328912  0.83328912
   0.50000000  0.66670206  0.83328142
   0.50000000  0.83328142  0.66670206
   0.66643893  0.00000000  0.00000000
   0.66667714  0.16671088  0.16671088
   0.82833279  0.00000000  0.17166721
   0.82833279  0.17166721  0.00000000
   0.66630524  0.00000000  0.33369476
   0.66670206  0.16671858  0.50000000
   0.83329420  0.00000000  0.50000000
   0.83328912  0.16671088  0.33332286
   0.66630524  0.00000000  0.66630524
   0.66667714  0.16671088  0.83328912
   0.82833279  0.00000000  0.82833279
   0.83328912  0.16671088  0.66667714
   0.66630524  0.33369476  0.00000000
   0.66670206  0.50000000  0.16671858
   0.83328912  0.33332286  0.16671088
   0.83329420  0.50000000  0.00000000
   0.66669222  0.33330778  0.33330778
   0.66668090  0.50000000  0.50000000
   0.83328142  0.33329794  0.50000000
   0.83328142  0.50000000  0.33329794
   0.66669222  0.33330778  0.66669222
   0.66670206  0.50000000  0.83328142
   0.83328912  0.33332286  0.83328912
   0.83328142  0.50000000  0.66670206
   0.66630524  0.66630524  0.00000000
   0.66667714  0.83328912  0.16671088
   0.83328912  0.66667714  0.16671088
   0.82833279  0.82833279  0.00000000
   0.66669222  0.66669222  0.33330778
   0.66670206  0.83328142  0.50000000
   0.83328142  0.66670206  0.50000000
   0.83328912  0.83328912  0.33332286
   0.66669222  0.66669222  0.66669222
   0.66667714  0.83328912  0.83328912
   0.83328912  0.66667714  0.83328912
   0.83328912  0.83328912  0.66667714
Direct configuration=     4
  -0.00000000  0.00000000  0.00000000
  -0.00000000  0.17179994  0.17179994
   0.17179994  0.00000000  0.17179994
   0.17179994  0.17179994  0.00000000
  -0.00000000  0.00000000  0.33356712
  -0.00000000  0.16670684  0.50000000
   0.16670684  0.00000000  0.50000000
   0.16671205  0.16671205  0.33332258
  -0.00000000  0.00000000  0.66643288
  -0.00000000  0.17179994  0.82820006
   0.17179994  0.00000000  0.82820006
   0.16671205  0.16671205  0.66667742
  -0.00000000  0.33356712  0.00000000
  -0.00000000  0.50000000  0.16670684
   0.16671205  0.33332258  0.16671205
   0.16670684  0.50000000  0.00000000
  -0.00000000  0.33370435  0.33370435
  -0.00000000  0.50000000  0.50000000
   0.16671995  0.33329700  0.50000000
   0.16671995  0.50000000  0.33329700
  -0.00000000  0.33370435  0.66629565
  -0.00000000  0.50000000  0.83329316
   0.16671205  0.33332258  0.83328795
   0.16671995  0.50000000  0.66670300
  -0.00000000  0.66643288  0.00000000
  -0.00000000  0.82820006  0.17179994
   0.16671205  0.66667742  0.16671205
   0.17179994  0.82820006  0.00000000
  -0.00000000  0.66629565  0.33370435
  -0.00000000  0.83329316  0.50000000
   0.16671995  0.66670300  0.50000000
   0.16671205  0.83328795  0.33332258
  -0.00000000  0.66629565  0.66629565
  -0.00000000  0.82820006  0.82820006
   0.16671205  0.66667742  0.83328795
   0.16671205  0.83328795  0.66667742
   0.33356712  0.00000000  0.00000000
   0.33332258  0.16671205  0.16671205
   0.50000000  0.00000000  0.16670684
   0.50000000  0.16670684  0.00000000
   0.33370435  0.00000000  0.33370435
   0.33329700  0.16671995  0.50000000
   0.50000000  0.00000000  0.50000000
   0.50000000  0.16671995  0.33329700
   0.33370435  0.00000000  0.66629565
   0.33332258  0.16671205  0.83328795
   0.50000000  0.00000000  0.83329316
   0.50000000  0.16671995  0.66670300
   0.33370435  0.33370435  0.00000000
   0.33329700  0.50000000  0.16671995
   0.50000000  0.33329700  0.16671995
   0.50000000  0.50000000  0.00000000
   0.33330711  0.33330711  0.33330711
   0.33331872  0.50000000  0.50000000
   0.50000000  0.33331872  0.50000000
   0.50000000  0.50000000  0.33331872
   0.33330711  0.33330711  0.66669289
   0.33329700  0.50000000  0.83328005
   0.50000000  0.33329700  0.83328005
   0.50000000  0.50000000  0.66668128
   0.33370435  0.66629565  0.00000000
   0.33332258  0.83328795  0.16671205
   0.50000000  0.66670300  0.16671995
   0.50000000  0.83329316  0.00000000
   0.33330711  0.66669289  0.33330711
   0.33329700  0.83328005  0.50000000
   0.50000000  0.66668128  0.50000000
   0.50000000  0.83328005  0.33329700
   0.33330711  0.66669289  0.66669289
   0.33332258  0.83328795  0.83328795
   0.50000000  0.66670300  0.83328005
   0.50000000  0.83328005  0.66670300
   0.66643288  0.00000000  0.00000000
   0.66667742  0.16671205  0.16671205
   0.82820006  0.00000000  0.17179994
   0.82820006  0.17179994  0.00000000
   0.66629565  0.00000000  0.33370435
   0.66670300  0.16671995  0.50000000
   0.83329316  0.00000000  0.50000000
   0.83328795  0.16671205  0.33332258
   0.66629565  0.00000000  0.66629565
   0.66667742  0.16671205  0.83328795
   0.82820006  0.00000000  0.82820006
   0.83328795  0.16671205  0.66667742
   0.66629565  0.33370435  0.00000000
   0.66670300  0.50000000  0.16671995
   0.83328795  0.33332258  0.16671205
   0.83329316  0.50000000  0.00000000
   0.66669289  0.33330711  0.33330711
   0.66668128  0.50000000  0.50000000
   0.83328005  0.33329700  0.50000000
   0.83328005  0.50000000  0.33329700
   0.66669289  0.33330711  0.66669289
   0.66670300  0.50000000  0.83328005
   0.83328795  0.33332258  0.83328795
   0.83328005  0.50000000  0.66670300
   0.66629565  0.66629565  0.00000000
   0.66667742  0.83328795  0.16671205
   0.83328795  0.66667742  0.16671205
   0.82820006  0.82820006  0.00000000
   0.66669289  0.66669289  0.33330711
   0.66670300  0.83328005  0.50000000
   0.83328005  0.66670300  0.50000000
   0.83328795  0.83328795  0.33332258
   0.66669289  0.66669289  0.66669289
   0.66667742  0.83328795  0.83328795
   0.83328795  0.66667742  0.83328795
   0.83328795  0.83328795  0.66667742
Direct configuration=     5
   0.00000000  0.00000000  0.00000000
   0.00000000  0.17206014  0.17206014
   0.17206014  0.00000000  0.17206014
   0.17206014  0.17206014  0.00000000
   0.00000000  0.00000000  0.33350157
   0.00000000  0.16674192  0.50000000
   0.16674192  0.00000000  0.50000000
   0.16702647  0.16702647  0.33392877
   0.00000000  0.00000000  0.66649843
   0.00000000  0.17206014  0.82793986
   0.17206014  0.00000000  0.82793986
   0.16702647  0.16702647  0.66607123
   0.00000000  0.33350157  0.00000000
   0.00000000  0.50000000  0.16674192
   0.16702647  0.33392877  0.16702647
   0.16674192  0.50000000  0.00000000
   0.00000000  0.33454542  0.33454542
   0.00000000  0.50000000  0.50000000
   0.16678921  0.33332331  0.50000000
   0.16678921  0.50000000  0.33332331
   0.00000000  0.33454542  0.66545458
   0.00000000  0.50000000  0.83325808
   0.16702647  0.33392877  0.83297353
   0.16678921  0.50000000  0.66667669
   0.00000000  0.66649843  0.00000000
   0.00000000  0.82793986  0.17206014
   0.16702647  0.66607123  0.16702647
   0.17206014  0.82793986  0.00000000
   0.00000000  0.66545458  0.33454542
   0.00000000  0.83325808  0.50000000
   0.16678921  0.66667669  0.50000000
   0.16702647  0.83297353  0.33392877
   0.00000000  0.66545458  0.66545458
   0.00000000  0.82793986  0.82793986
   0.16702647  0.66607123  0.83297353
   0.16702647  0.83297353  0.66607123
   0.33350157  0.00000000  0.00000000
   0.33392877  0.16702647  0.16702647
   0.50000000  0.00000000  0.16674192
   0.50000000  0.16674192  0.00000000
   0.33454542  0.00000000  0.33454542
   0.33332331  0.16678921  0.50000000
   0.50000000  0.00000000  0.50000000
   0.50000000  0.16678921  0.33332331
   0.33454542  0.00000000  0.66545458
   0.33392877  0.16702647  0.83297353
   0.50000000  0.00000000  0.83325808
   0.50000000  0.16678921  0.66667669
   0.33454542  0.33454542  0.00000000
   0.33332331  0.50000000  0.16678921
   0.50000000  0.33332331  0.16678921
   0.50000000  0.50000000  0.00000000
   0.33335262  0.33335262  0.33335262
   0.33332907  0.50000000  0.50000000
   0.50000000  0.33332907  0.50000000
   0.50000000  0.50000000  0.33332907
   0.33335262  0.33335262  0.66664738
   0.33332331  0.50000000  0.83321079
   0.50000000  0.33332331  0.83321079
   0.50000000  0.50000000  0.66667093
   0.33454542  0.66545458  0.00000000
   0.33392877  0.83297353  0.16702647
   0.50000000  0.66667669  0.16678921
   0.50000000  0.83325808  0.00000000
   0.33335262  0.66664738  0.33335262
   0.33332331  0.83321079  0.50000000
   0.50000000  0.66667093  0.50000000
   0.50000000  0.83321079  0.33332331
   0.33335262  0.66664738  0.66664738
   0.33392877  0.83297353  0.83297353
   0.50000000  0.66667669  0.83321079
   0.50000000  0.83321079  0.66667669
   0.66649843  0.00000000  0.00000000
   0.66607123  0.16702647  0.16702647
   0.82793986  0.00000000  0.17206014
   0.82793986  0.17206014  0.00000000
   0.66545458  0.00000000  0.33454542
   0.66667669  0.16678921  0.50000000
   0.83325808  0.00000000  0.50000000
   0.83297353  0.16702647  0.33392877
   0.66545458  0.00000000  0.66545458
   0.66607123  0.16702647  0.83297353
   0.82793986  0.00000000  0.82793986
   0.83297353  0.16702647  0.66607123
   0.66545458  0.33454542  0.00000000
   0.66667669  0.50000000  0.16678921
   0.83297353  0.33392877  0.16702647
   0.83325808  0.50000000  0.00000000
   0.66664738  0.33335262  0.33335262
   0.66667093  0.50000000  0.50000000
   0.83321079  0.33332331  0.50000000
   0.83321079  0.50000000  0.33332331
   0.66664738  0.33335262  0.66664738
   0.66667669  0.50000000  0.83321079
   0.83297353  0.33392877  0.83297353
   0.83321079  0.50000000  0.66667669
   0.66545458  0.66545458  0.00000000
   0.66607123  0.83297353  0.16702647
   0.83297353  0.66607123  0.16702647
   0.82793986  0.82793986  0.00000000
   0.66664738  0.66664738  0.33335262
   0.66667669  0.83321079  0.50000000
   0.83321079  0.66667669  0.50000000
   0.83297353  0.83297353  0.33392877
   0.66664738  0.66664738  0.66664738
   0.66607123  0.83297353  0.83297353
   0.83297353  0.66607123  0.83297353
   0.83297353  0.83297353  0.66607123
Direct configuration=     6
   0.00000000  0.00000000  0.00000000
   0.00000000  0.17231716  0.17231716
   0.17231716  0.00000000  0.17231716
   0.17231716  0.17231716  0.00000000
   0.00000000  0.00000000  0.33343683
   0.00000000  0.16677658  0.50000000
   0.16677658  0.00000000  0.50000000
   0.16733703  0.16733703  0.33452754
   0.00000000  0.00000000  0.66656317
   0.00000000  0.17231716  0.82768284
   0.17231716  0.00000000  0.82768284
   0.16733703  0.16733703  0.66547246
   0.00000000  0.33343683  0.00000000
   0.00000000  0.50000000  0.16677658
   0.16733703  0.33452754  0.16733703
   0.16677658  0.50000000  0.00000000
   0.00000000  0.33537619  0.33537619
   0.00000000  0.50000000  0.50000000
   0.16685762  0.33334930  0.50000000
   0.16685762  0.50000000  0.33334930
   0.00000000  0.33537619  0.66462381
   0.00000000  0.50000000  0.83322342
   0.16733703  0.33452754  0.83266297
   0.16685762  0.50000000  0.66665070
   0.00000000  0.66656317  0.00000000
   0.00000000  0.82768284  0.17231716
   0.16733703  0.66547246  0.16733703
   0.17231716  0.82768284  0.00000000
   0.00000000  0.66462381  0.33537619
   0.00000000  0.83322342  0.50000000
   0.16685762  0.66665070  0.50000000
   0.16733703  0.83266297  0.33452754
   0.00000000  0.66462381  0.66462381
   0.00000000  0.82768284  0.82768284
   0.16733703  0.66547246  0.83266297
   0.16733703  0.83266297  0.66547246
   0.33343683  0.00000000  0.00000000
   0.33452754  0.16733703  0.16733703
   0.50000000  0.00000000  0.16677658
   0.50000000  0.16677658  0.00000000
   0.33537619  0.00000000  0.33537619
   0.33334930  0.16685762  0.50000000
   0.50000000  0.00000000  0.50000000
   0.50000000  0.16685762  0.33334930
   0.33537619  0.00000000  0.66462381
   0.33452754  0.16733703  0.83266297
   0.50000000  0.00000000  0.83322342
   0.50000000  0.16685762  0.66665070
   0.33537619  0.33537619  0.00000000
   0.33334930  0.50000000  0.16685762
   0.50000000  0.33334930  0.16685762
   0.50000000  0.50000000  0.00000000
   0.33339757  0.33339757  0.33339757
   0.33333930  0.50000000  0.50000000
   0.50000000  0.33333930  0.50000000
   0.50000000  0.50000000  0.33333930
   0.33339757  0.33339757  0.66660243
   0.33334930  0.50000000  0.83314238
   0.50000000  0.33334930  0.83314238
   0.50000000  0.50000000  0.66666070
   0.33537619  0.66462381  0.00000000
   0.33452754  0.83266297  0.16733703
   0.50000000  0.66665070  0.16685762
   0.50000000  0.83322342  0.00000000
   0.33339757  0.66660243  0.33339757
   0.33334930  0.83314238  0.50000000
   0.50000000  0.66666070  0.50000000
   0.50000000  0.83314238  0.33334930
   0.33339757  0.66660243  0.66660243
   0.33452754  0.83266297  0.83266297
   0.50000000  0.66665070  0.83314238
   0.50000000  0.83314238  0.66665070
   0.66656317  0.00000000  0.00000000
   0.66547246  0.16733703  0.16733703
   0.82768284  0.00000000  0.17231716
   0.82768284  0.17231716  0.00000000
   0.66462381  0.00000000  0.33537619
   0.66665070  0.16685762  0.50000000
   0.83322342  0.00000000  0.50000000
   0.83266297  0.16733703  0.33452754
   0.66462381  0.00000000  0.66462381
   0.66547246  0.16733703  0.83266297
   0.82768284  0.00000000  0.82768284
   0.83266297  0.16733703  0.66547246
   0.66462381  0.33537619  0.00000000
   0.66665070  0.50000000  0.16685762
   0.83266297  0.33452754  0.16733703
   0.83322342  0.50000000  0.00000000
   0.66660243  0.33339757  0.33339757
   0.66666070  0.50000000  0.50000000
   0.83314238  0.33334930  0.50000000
   0.83314238  0.50000000  0.33334930
   0.66660243  0.33339757  0.66660243
   0.66665070  0.50000000  0.83314238
   0.83266297  0.33452754  0.83266297
   0.83314238  0.50000000  0.66665070
   0.66462381  0.66462381  0.00000000
   0.66547246  0.83266297  0.16733703
   0.83266297  0.66547246  0.16733703
   0.82768284  0.82768284  0.00000000
   0.66660243  0.66660243  0.33339757
   0.66665070  0.83314238  0.50000000
   0.83314238  0.66665070  0.50000000
   0.83266297  0.83266297  0.33452754
   0.66660243  0.66660243  0.66660243
   0.66547246  0.83266297  0.83266297
   0.83266297  0.66547246  0.83266297
   0.83266297  0.83266297  0.66547246
Direct configuration=     7
   0.00000000 -0.00000000  0.00000000
   0.00000000  0.17243196  0.17243196
   0.17243196 -0.00000000  0.17243196
   0.17243196  0.17243196  0.00000000
   0.00000000 -0.00000000  0.33336507
   0.00000000  0.16672949  0.50000000
   0.16672949 -0.00000000  0.50000000
   0.16742530  0.16742530  0.33452723
   0.00000000 -0.00000000  0.66663493
   0.00000000  0.17243196  0.82756804
   0.17243196 -0.00000000  0.82756804
   0.16742530  0.16742530  0.66547277
   0.00000000  0.33336507  0.00000000
   0.00000000  0.50000000  0.16672949
   0.16742530  0.33452723  0.16742530
   0.16672949  0.50000000  0.00000000
   0.00000000  0.33545540  0.33545540
   0.00000000  0.50000000  0.50000000
   0.16712617  0.33359562  0.50000000
   0.16712617  0.50000000  0.33359562
   0.00000000  0.33545540  0.66454460
   0.00000000  0.50000000  0.83327051
   0.16742530  0.33452723  0.83257470
   0.16712617  0.50000000  0.66640438
   0.00000000  0.66663493  0.00000000
   0.00000000  0.82756804  0.17243196
   0.16742530  0.66547277  0.16742530
   0.17243196  0.82756804  0.00000000
   0.00000000  0.66454460  0.33545540
   0.00000000  0.83327051  0.50000000
   0.16712617  0.66640438  0.50000000
   0.16742530  0.83257470  0.33452723
   0.00000000  0.66454460  0.66454460
   0.00000000  0.82756804  0.82756804
   0.16742530  0.66547277  0.83257470
   0.16742530  0.83257470  0.66547277
   0.33336507 -0.00000000  0.00000000
   0.33452723  0.16742530  0.16742530
   0.50000000 -0.00000000  0.16672949
   0.50000000  0.16672949  0.00000000
   0.33545540 -0.00000000  0.33545540
   0.33359562  0.16712617  0.50000000
   0.50000000 -0.00000000  0.50000000
   0.50000000  0.16712617  0.33359562
   0.33545540 -0.00000000  0.66454460
   0.33452723  0.16742530  0.83257470
   0.50000000 -0.00000000  0.83327051
   0.50000000  0.16712617  0.66640438
   0.33545540  0.33545540  0.00000000
   0.33359562  0.50000000  0.16712617
   0.50000000  0.33359562  0.16712617
   0.50000000  0.50000000  0.00000000
   0.33356252  0.33356252  0.33356252
   0.33343656  0.50000000  0.50000000
   0.50000000  0.33343656  0.50000000
   0.50000000  0.50000000  0.33343656
   0.33356252  0.33356252  0.66643748
   0.33359562  0.50000000  0.83287383
   0.50000000  0.33359562  0.83287383
   0.50000000  0.50000000  0.66656344
   0.33545540  0.66454460  0.00000000
   0.33452723  0.83257470  0.16742530
   0.50000000  0.66640438  0.16712617
   0.50000000  0.83327051  0.00000000
   0.33356252  0.66643748  0.33356252
   0.33359562  0.83287383  0.50000000
   0.50000000  0.66656344  0.50000000
   0.50000000  0.83287383  0.33359562
   0.33356252  0.66643748  0.66643748
   0.33452723  0.83257470  0.83257470
   0.50000000  0.66640438  0.83287383
   0.50000000  0.83287383  0.66640438
   0.66663493 -0.00000000  0.00000000
   0.66547277  0.16742530  0.16742530
   0.82756804 -0.00000000  0.17243196
   0.82756804  0.17243196  0.00000000
   0.66454460 -0.00000000  0.33545540
   0.66640438  0.16712617  0.50000000
   0.83327051 -0.00000000  0.50000000
   0.83257470  0.16742530  0.33452723
   0.66454460 -0.00000000  0.66454460
   0.66547277  0.16742530  0.83257470
   0.82756804 -0.00000000  0.82756804
   0.83257470  0.16742530  0.66547277
   0.66454460  0.33545540  0.00000000
   0.66640438  0.50000000  0.16712617
   0.83257470  0.33452723  0.16742530
   0.83327051  0.50000000  0.00000000
   0.66643748  0.33356252  0.33356252
   0.66656344  0.50000000  0.50000000
   0.83287383  0.33359562  0.50000000
   0.83287383  0.50000000  0.33359562
   0.66643748  0.33356252  0.66643748
   0.66640438  0.50000000  0.83287383
   0.83257470  0.33452723  0.83257470
   0.83287383  0.50000000  0.66640438
   0.66454460  0.66454460  0.00000000
   0.66547277  0.83257470  0.16742530
   0.83257470  0.66547277  0.16742530
   0.82756804  0.82756804  0.00000000
   0.66643748  0.66643748  0.33356252
   0.66640438  0.83287383  0.50000000
   0.83287383  0.66640438  0.50000000
   0.83257470  0.83257470  0.33452723
   0.66643748  0.66643748  0.66643748
   0.66547277  0.83257470  0.83257470
   0.83257470  0.66547277  0.83257470
   0.83257470  0.83257470  0.66547277
Direct configuration=     8
   0.00000000 -0.00000000  0.00000000
   0.00000000  0.17249982  0.17249982
   0.17249982 -0.00000000  0.17249982
   0.17249982  0.17249982  0.00000000
   0.00000000 -0.00000000  0.33332265
   0.00000000  0.16670166  0.50000000
   0.16670166 -0.00000000  0.50000000
   0.16747746  0.16747746  0.33452705
   0.00000000 -0.00000000  0.66667735
   0.00000000  0.17249982  0.82750018
   0.17249982 -0.00000000  0.82750018
   0.16747746  0.16747746  0.66547295
   0.00000000  0.33332265  0.00000000
   0.00000000  0.50000000  0.16670166
   0.16747746  0.33452705  0.16747746
   0.16670166  0.50000000  0.00000000
   0.00000000  0.33550221  0.33550221
   0.00000000  0.50000000  0.50000000
   0.16728489  0.33374120  0.50000000
   0.16728489  0.50000000  0.33374120
   0.00000000  0.33550221  0.66449779
   0.00000000  0.50000000  0.83329834